/*--------------------------------*- C++ -*----------------------------------*\
  =========                 |
  \\      /  F ield         | OpenFOAM: The Open Source CFD Toolbox
   \\    /   O peration     | Website:  https://openfoam.org
    \\  /    A nd           | Version:  6
     \\/     M anipulation  |
\*---------------------------------------------------------------------------*/
FoamFile
{
    version     2.0;
    format      ascii;
    class       volScalarField;
    location    "18";
    object      hwater;
}
// * * * * * * * * * * * * * * * * * * * * * * * * * * * * * * * * * * * * * //

dimensions      [0 1 0 0 0 0 0];

internalField   nonuniform List<scalar> 
625
(
8.94799
8.77729
8.60324
8.42564
8.24425
8.05884
7.8691
7.67474
7.47539
7.27065
7.06006
6.84307
6.61908
6.38736
6.14705
5.89711
5.63629
5.36303
5.07539
4.77085
4.44619
4.09731
3.71956
3.31045
2.88097
8.94799
8.77729
8.60324
8.42564
8.24425
8.05884
7.8691
7.67474
7.47539
7.27065
7.06006
6.84307
6.61908
6.38736
6.14705
5.89711
5.63628
5.36303
5.07538
4.77084
4.44618
4.09727
3.71946
3.31012
2.88008
8.94799
8.77729
8.60324
8.42564
8.24425
8.05883
7.8691
7.67474
7.47539
7.27065
7.06005
6.84307
6.61908
6.38736
6.14704
5.8971
5.63628
5.36302
5.07537
4.77083
4.44615
4.09721
3.71926
3.30947
2.87828
8.94799
8.77729
8.60324
8.42563
8.24425
8.05883
7.8691
7.67474
7.47539
7.27065
7.06005
6.84307
6.61908
6.38735
6.14704
5.8971
5.63627
5.36301
5.07536
4.77081
4.44611
4.09711
3.71895
3.3085
2.87558
8.94799
8.77728
8.60324
8.42563
8.24425
8.05883
7.8691
7.67474
7.47539
7.27064
7.06005
6.84306
6.61907
6.38735
6.14703
5.89709
5.63626
5.363
5.07535
4.77078
4.44606
4.09697
3.71855
3.30721
2.87193
8.94798
8.77728
8.60323
8.42563
8.24425
8.05883
7.8691
7.67473
7.47538
7.27064
7.06004
6.84306
6.61907
6.38734
6.14702
5.89708
5.63625
5.36299
5.07533
4.77075
4.446
4.09681
3.71806
3.30562
2.86732
8.94798
8.77728
8.60323
8.42563
8.24424
8.05883
7.86909
7.67473
7.47538
7.27064
7.06004
6.84305
6.61906
6.38733
6.14701
5.89707
5.63624
5.36297
5.0753
4.77072
4.44592
4.09662
3.71748
3.30374
2.8617
8.94798
8.77728
8.60323
8.42562
8.24424
8.05882
7.86909
7.67473
7.47537
7.27063
7.06003
6.84304
6.61905
6.38732
6.147
5.89706
5.63622
5.36295
5.07528
4.77067
4.44584
4.0964
3.71683
3.30158
2.85503
8.94798
8.77727
8.60322
8.42562
8.24424
8.05882
7.86908
7.67472
7.47537
7.27062
7.06002
6.84304
6.61904
6.38731
6.14699
5.89704
5.63621
5.36293
5.07524
4.77062
4.44574
4.09616
3.71611
3.29918
2.84724
8.94797
8.77727
8.60322
8.42562
8.24423
8.05881
7.86908
7.67471
7.47536
7.27062
7.06002
6.84303
6.61903
6.3873
6.14698
5.89703
5.63619
5.3629
5.07521
4.77057
4.44563
4.0959
3.71533
3.29655
2.83827
8.94797
8.77727
8.60322
8.42561
8.24423
8.05881
7.86907
7.67471
7.47535
7.27061
7.06001
6.84302
6.61902
6.38729
6.14696
5.89701
5.63616
5.36288
5.07517
4.77051
4.44552
4.09563
3.71449
3.29372
2.82804
8.94797
8.77726
8.60321
8.42561
8.24422
8.0588
7.86907
7.6747
7.47535
7.2706
7.06
6.84301
6.61901
6.38727
6.14695
5.89699
5.63614
5.36285
5.07513
4.77045
4.4454
4.09533
3.71363
3.29075
2.81643
8.94796
8.77726
8.60321
8.4256
8.24422
8.0588
7.86906
7.67469
7.47534
7.27059
7.05999
6.843
6.61899
6.38726
6.14693
5.89697
5.63611
5.36281
5.07509
4.77038
4.44527
4.09503
3.71273
3.28767
2.80335
9.14796
8.97725
8.8032
8.6256
8.44421
8.25879
8.06905
7.87469
7.67533
7.47058
7.25998
7.04298
6.81898
6.58724
6.34691
6.09694
5.83609
5.56278
5.27504
4.97031
4.64514
4.29472
3.91185
3.48465
2.98916
9.14795
8.97725
8.8032
8.62559
8.4442
8.25878
8.06905
7.87468
7.67532
7.47057
7.25997
7.04297
6.81897
6.58723
6.34689
6.09692
5.83606
5.56275
5.275
4.97024
4.64502
4.29444
3.91101
3.48178
2.97695
9.14795
8.97725
8.80319
8.62559
8.4442
8.25878
8.06904
7.87467
7.67531
7.47056
7.25996
7.04296
6.81895
6.58721
6.34687
6.0969
5.83604
5.56272
5.27496
4.97018
4.64491
4.29417
3.9102
3.47903
2.96614
9.14795
8.97724
8.80319
8.62558
8.44419
8.25877
8.06904
7.87467
7.67531
7.47056
7.25995
7.04295
6.81894
6.5872
6.34686
6.09689
5.83602
5.56269
5.27492
4.97013
4.64481
4.29391
3.90945
3.47645
2.95665
9.14794
8.97724
8.80319
8.62558
8.44419
8.25877
8.06903
7.87466
7.6753
7.47055
7.25994
7.04294
6.81893
6.58719
6.34685
6.09687
5.836
5.56267
5.27489
4.97008
4.64471
4.29368
3.90874
3.47408
2.9484
9.14794
8.97724
8.80318
8.62558
8.44419
8.25876
8.06903
7.87466
7.6753
7.47054
7.25993
7.04294
6.81893
6.58718
6.34684
6.09686
5.83598
5.56265
5.27486
4.97004
4.64463
4.29346
3.90811
3.47194
2.94131
9.14794
8.97723
8.80318
8.62557
8.44418
8.25876
8.06902
7.87465
7.67529
7.47054
7.25993
7.04293
6.81892
6.58717
6.34683
6.09685
5.83597
5.56263
5.27484
4.97
4.64455
4.29328
3.90755
3.47007
2.93533
9.14794
8.97723
8.80318
8.62557
8.44418
8.25876
8.06902
7.87465
7.67529
7.47054
7.25992
7.04292
6.81891
6.58716
6.34682
6.09684
5.83596
5.56261
5.27482
4.96997
4.64449
4.29312
3.90707
3.46849
2.93043
9.14793
8.97723
8.80318
8.62557
8.44418
8.25876
8.06902
7.87465
7.67529
7.47053
7.25992
7.04292
6.81891
6.58716
6.34681
6.09683
5.83595
5.5626
5.2748
4.96994
4.64444
4.29299
3.90668
3.4672
2.92654
9.14793
8.97723
8.80318
8.62557
8.44418
8.25875
8.06902
7.87464
7.67528
7.47053
7.25992
7.04292
6.8189
6.58716
6.34681
6.09682
5.83594
5.56259
5.27479
4.96992
4.6444
4.29289
3.90638
3.46623
2.92366
9.14793
8.97723
8.80318
8.62557
8.44418
8.25875
8.06901
7.87464
7.67528
7.47053
7.25992
7.04291
6.8189
6.58715
6.3468
6.09682
5.83594
5.56259
5.27478
4.96991
4.64437
4.29282
3.90618
3.46558
2.92175
9.14793
8.97723
8.80317
8.62557
8.44418
8.25875
8.06901
7.87464
7.67528
7.47053
7.25992
7.04291
6.8189
6.58715
6.3468
6.09682
5.83593
5.56258
5.27478
4.9699
4.64436
4.29279
3.90608
3.46525
2.92079
)
;

boundaryField
{
    inlet
    {
        type            darcyGradPressure;
        gradient        uniform 0;
        value           nonuniform List<scalar> 
25
(
9.03176
9.03176
9.03176
9.03176
9.03175
9.03175
9.03175
9.03175
9.03175
9.03174
9.03174
9.03174
9.03173
9.23173
9.23172
9.23172
9.23172
9.23171
9.23171
9.23171
9.23171
9.2317
9.2317
9.2317
9.2317
)
;
    }
    outlet
    {
        type            fixedValue;
        value           nonuniform List<scalar> 
25
(
0.2
0.2
0.2
0.2
0.2
0.2
0.2
0.2
0.2
0.2
0.2
0.2
0.2
0.4
0.4
0.4
0.4
0.4
0.4
0.4
0.4
0.4
0.4
0.4
0.4
)
;
    }
    frontAndBack
    {
        type            empty;
    }
}


// ************************************************************************* //
