/*--------------------------------*- C++ -*----------------------------------*\
  =========                 |
  \\      /  F ield         | OpenFOAM: The Open Source CFD Toolbox
   \\    /   O peration     | Website:  https://openfoam.org
    \\  /    A nd           | Version:  6
     \\/     M anipulation  |
\*---------------------------------------------------------------------------*/
FoamFile
{
    version     2.0;
    format      ascii;
    class       surfaceScalarField;
    location    "0";
    object      phi;
}
// * * * * * * * * * * * * * * * * * * * * * * * * * * * * * * * * * * * * * //

dimensions      [0 3 -1 0 0 0 0];

internalField   nonuniform List<scalar> 
1200
(
1.5741e-05
3.26847e-09
1.60498e-05
3.43426e-09
1.63775e-05
3.68847e-09
1.67261e-05
3.9986e-09
1.7098e-05
4.3583e-09
1.74959e-05
4.7717e-09
1.79229e-05
5.24787e-09
1.83828e-05
5.79953e-09
1.888e-05
6.44339e-09
1.94199e-05
7.20122e-09
2.00089e-05
8.10182e-09
2.0655e-05
9.18393e-09
2.1368e-05
1.05011e-08
2.21603e-05
1.21305e-08
2.30479e-05
1.41905e-08
2.40513e-05
1.68825e-08
2.5198e-05
2.0606e-08
2.6525e-05
2.63032e-08
2.80826e-05
3.65766e-08
2.9938e-05
5.9461e-08
3.21718e-05
1.21516e-07
3.48333e-05
3.13901e-07
3.77259e-05
9.5087e-07
3.96044e-05
3.02181e-06
8.23279e-06
1.5741e-05
6.53532e-09
1.60498e-05
6.86774e-09
1.63775e-05
7.37651e-09
1.67261e-05
7.99687e-09
1.7098e-05
8.71626e-09
1.74959e-05
9.54301e-09
1.79229e-05
1.04953e-08
1.83828e-05
1.15985e-08
1.888e-05
1.28861e-08
1.94199e-05
1.44016e-08
2.00089e-05
1.62025e-08
2.0655e-05
1.83664e-08
2.1368e-05
2.10003e-08
2.21604e-05
2.42583e-08
2.30479e-05
2.83767e-08
2.40513e-05
3.37579e-08
2.51981e-05
4.11972e-08
2.65251e-05
5.25697e-08
2.80828e-05
7.3048e-08
2.99387e-05
1.1859e-07
3.21737e-05
2.41932e-07
3.48396e-05
6.24137e-07
3.77466e-05
1.89048e-06
3.96565e-05
6.02262e-06
1.65323e-05
1.5741e-05
9.79894e-09
1.60498e-05
1.02997e-08
1.63775e-05
1.10637e-08
1.67261e-05
1.19945e-08
1.7098e-05
1.30735e-08
1.74959e-05
1.43135e-08
1.79229e-05
1.57417e-08
1.83828e-05
1.73963e-08
1.888e-05
1.93273e-08
1.94199e-05
2.16001e-08
2.00089e-05
2.43009e-08
2.0655e-05
2.75459e-08
2.13681e-05
3.14955e-08
2.21604e-05
3.63805e-08
2.3048e-05
4.25546e-08
2.40514e-05
5.06188e-08
2.51982e-05
6.1759e-08
2.65253e-05
7.87635e-08
2.80832e-05
1.0931e-07
2.99399e-05
1.77059e-07
3.21775e-05
3.60166e-07
3.48523e-05
9.27084e-07
3.77879e-05
2.80759e-06
3.97616e-05
8.98059e-06
2.49666e-05
1.5741e-05
1.30577e-08
1.60498e-05
1.37292e-08
1.63775e-05
1.47496e-08
1.67261e-05
1.59911e-08
1.7098e-05
1.74298e-08
1.74959e-05
1.90829e-08
1.79229e-05
2.09868e-08
1.83828e-05
2.31924e-08
1.88801e-05
2.57664e-08
1.94199e-05
2.8796e-08
2.0009e-05
3.23959e-08
2.06551e-05
3.6721e-08
2.13681e-05
4.19848e-08
2.21605e-05
4.84945e-08
2.3048e-05
5.672e-08
2.40515e-05
6.74584e-08
2.51983e-05
8.2277e-08
2.65256e-05
1.04849e-07
2.80839e-05
1.45262e-07
2.99417e-05
2.34551e-07
3.21832e-05
4.75162e-07
3.48711e-05
1.2192e-06
3.78497e-05
3.69095e-06
3.99215e-05
1.18721e-05
3.36061e-05
1.5741e-05
1.63099e-08
1.60498e-05
1.71557e-08
1.63775e-05
1.84338e-08
1.67261e-05
1.99863e-08
1.70981e-05
2.17847e-08
1.74959e-05
2.38506e-08
1.7923e-05
2.62299e-08
1.83829e-05
2.89862e-08
1.88801e-05
3.22027e-08
1.942e-05
3.59883e-08
2.0009e-05
4.04864e-08
2.06551e-05
4.58901e-08
2.13682e-05
5.24662e-08
2.21605e-05
6.05974e-08
2.30482e-05
7.08688e-08
2.40517e-05
8.42695e-08
2.51986e-05
1.02737e-07
2.6526e-05
1.30793e-07
2.80848e-05
1.80807e-07
2.99441e-05
2.90761e-07
3.21906e-05
5.85914e-07
3.48958e-05
1.49707e-06
3.79315e-05
4.52938e-06
4.01388e-05
1.4671e-05
4.25253e-05
1.5741e-05
1.95538e-08
1.60498e-05
2.05783e-08
1.63775e-05
2.2116e-08
1.67262e-05
2.398e-08
1.70981e-05
2.61378e-08
1.7496e-05
2.86164e-08
1.7923e-05
3.14707e-08
1.83829e-05
3.47771e-08
1.88801e-05
3.86354e-08
1.942e-05
4.31761e-08
2.00091e-05
4.85711e-08
2.06552e-05
5.50519e-08
2.13682e-05
6.29377e-08
2.21607e-05
7.26866e-08
2.30483e-05
8.49969e-08
2.40519e-05
1.01045e-07
2.51989e-05
1.23126e-07
2.65265e-05
1.56561e-07
2.80859e-05
2.15854e-07
2.99471e-05
3.45404e-07
3.21997e-05
6.91474e-07
3.49261e-05
1.75745e-06
3.80329e-05
5.31175e-06
4.04174e-05
1.73471e-05
5.1804e-05
1.5741e-05
2.27878e-08
1.60498e-05
2.39964e-08
1.63775e-05
2.57957e-08
1.67262e-05
2.79716e-08
1.70981e-05
3.0489e-08
1.7496e-05
3.33799e-08
1.7923e-05
3.67087e-08
1.83829e-05
4.05645e-08
1.88802e-05
4.50639e-08
1.94201e-05
5.03586e-08
2.00091e-05
5.66491e-08
2.06553e-05
6.42049e-08
2.13683e-05
7.33975e-08
2.21608e-05
8.47593e-08
2.30485e-05
9.91003e-08
2.40521e-05
1.1778e-07
2.51992e-05
1.43431e-07
2.65271e-05
1.82125e-07
2.80872e-05
2.50316e-07
2.99505e-05
3.98216e-07
3.22104e-05
7.90968e-07
3.49617e-05
1.9973e-06
3.81532e-05
6.02715e-06
4.07619e-05
1.98659e-05
6.1529e-05
1.5741e-05
2.60101e-08
1.60498e-05
2.74092e-08
1.63775e-05
2.94725e-08
1.67262e-05
3.1961e-08
1.70981e-05
3.48377e-08
1.7496e-05
3.81406e-08
1.79231e-05
4.19434e-08
1.8383e-05
4.6348e-08
1.88802e-05
5.14874e-08
1.94201e-05
5.75349e-08
2.00092e-05
6.47192e-08
2.06554e-05
7.33476e-08
2.13685e-05
8.38436e-08
2.21609e-05
9.6813e-08
2.30486e-05
1.13175e-07
2.40523e-05
1.34466e-07
2.51996e-05
1.63639e-07
2.65278e-05
2.07454e-07
2.80887e-05
2.84118e-07
2.99545e-05
4.48959e-07
3.22225e-05
8.83611e-07
3.5002e-05
2.21386e-06
3.82916e-05
6.66493e-06
4.11786e-05
2.21863e-05
7.1796e-05
1.57411e-05
2.92186e-08
1.60498e-05
3.08162e-08
1.63776e-05
3.31461e-08
1.67262e-05
3.59478e-08
1.70982e-05
3.91838e-08
1.74961e-05
4.28981e-08
1.79231e-05
4.71743e-08
1.8383e-05
5.21268e-08
1.88803e-05
5.79052e-08
1.94202e-05
6.47041e-08
2.00093e-05
7.27802e-08
2.06555e-05
8.24786e-08
2.13686e-05
9.4274e-08
2.21611e-05
1.08845e-07
2.30488e-05
1.27218e-07
2.40526e-05
1.51097e-07
2.52e-05
1.83739e-07
2.65285e-05
2.32525e-07
2.80903e-05
3.17191e-07
2.99588e-05
4.97426e-07
3.22358e-05
9.68715e-07
3.50465e-05
2.40467e-06
3.84468e-05
7.21493e-06
4.16747e-05
2.426e-05
8.2712e-05
1.57411e-05
3.24117e-08
1.60499e-05
3.42168e-08
1.63776e-05
3.68162e-08
1.67263e-05
3.99316e-08
1.70982e-05
4.35268e-08
1.74961e-05
4.76522e-08
1.79232e-05
5.2401e-08
1.83831e-05
5.79005e-08
1.88804e-05
6.43166e-08
1.94203e-05
7.18652e-08
2.00094e-05
8.08311e-08
2.06556e-05
9.15964e-08
2.13687e-05
1.04687e-07
2.21613e-05
1.20853e-07
2.30491e-05
1.41224e-07
2.4053e-05
1.67669e-07
2.52005e-05
2.03721e-07
2.65294e-05
2.57314e-07
2.80921e-05
3.49476e-07
2.99635e-05
5.43441e-07
3.22501e-05
1.04571e-06
3.50946e-05
2.56765e-06
3.86173e-05
7.66771e-06
4.22592e-05
2.60292e-05
9.43973e-05
1.57411e-05
3.55871e-08
1.60499e-05
3.76105e-08
1.63776e-05
4.04825e-08
1.67263e-05
4.39123e-08
1.70982e-05
4.78664e-08
1.74962e-05
5.24023e-08
1.79232e-05
5.7623e-08
1.83832e-05
6.36685e-08
1.88804e-05
7.0721e-08
1.94204e-05
7.90176e-08
2.00095e-05
8.88707e-08
2.06557e-05
1.007e-07
2.13689e-05
1.15081e-07
2.21615e-05
1.32834e-07
2.30494e-05
1.55191e-07
2.40533e-05
1.84175e-07
2.5201e-05
2.23575e-07
2.65303e-05
2.81801e-07
2.80941e-05
3.80923e-07
2.99686e-05
5.86865e-07
3.22653e-05
1.11413e-06
3.51456e-05
2.70111e-06
3.88009e-05
8.01493e-06
4.29429e-05
2.74249e-05
0.000106989
1.57411e-05
3.87428e-08
1.60499e-05
4.09967e-08
1.63777e-05
4.41447e-08
1.67263e-05
4.78896e-08
1.70983e-05
5.22024e-08
1.74962e-05
5.71482e-08
1.79233e-05
6.28399e-08
1.83832e-05
6.94303e-08
1.88805e-05
7.71177e-08
1.94205e-05
8.61602e-08
2.00096e-05
9.6898e-08
2.06559e-05
1.09787e-07
2.13691e-05
1.25453e-07
2.21617e-05
1.44785e-07
2.30496e-05
1.69115e-07
2.40537e-05
2.0061e-07
2.52016e-05
2.43292e-07
2.65313e-05
3.0597e-07
2.80961e-05
4.11496e-07
2.99738e-05
6.27592e-07
3.22812e-05
1.17366e-06
3.51987e-05
2.80384e-06
3.8995e-05
8.24976e-06
4.37385e-05
2.83647e-05
0.000120645
1.57411e-05
4.14137e-08
1.605e-05
4.38754e-08
1.63777e-05
4.72532e-08
1.67264e-05
5.12548e-08
1.70983e-05
5.58568e-08
1.74963e-05
6.11308e-08
1.79233e-05
6.71972e-08
1.83833e-05
7.42181e-08
1.88806e-05
8.24035e-08
1.94206e-05
9.20266e-08
2.00098e-05
1.03447e-07
2.0656e-05
1.17145e-07
2.13693e-05
1.33781e-07
2.21619e-05
1.54289e-07
2.305e-05
1.80062e-07
2.40541e-05
2.13351e-07
2.52022e-05
2.58282e-07
2.65323e-05
3.2377e-07
2.80983e-05
4.32642e-07
2.99793e-05
6.51892e-07
3.22975e-05
1.19717e-06
3.52532e-05
2.80659e-06
3.91962e-05
8.14802e-06
4.46613e-05
2.79004e-05
0.000130855
1.57412e-05
3.76259e-08
1.605e-05
3.98019e-08
1.63777e-05
4.28405e-08
1.67264e-05
4.64531e-08
1.70984e-05
5.06108e-08
1.74963e-05
5.53755e-08
1.79234e-05
6.08551e-08
1.83834e-05
6.71949e-08
1.88807e-05
7.4584e-08
1.94207e-05
8.3268e-08
2.00099e-05
9.35701e-08
2.06562e-05
1.05923e-07
2.13695e-05
1.2092e-07
2.21622e-05
1.39404e-07
2.30503e-05
1.62633e-07
2.40546e-05
1.92654e-07
2.52029e-05
2.33265e-07
2.65334e-05
2.92772e-07
2.81005e-05
3.9271e-07
2.99847e-05
5.96784e-07
3.23136e-05
1.11087e-06
3.53066e-05
2.64051e-06
3.93937e-05
7.73327e-06
4.56909e-05
2.64888e-05
0.000112596
1.57412e-05
3.42696e-08
1.605e-05
3.62097e-08
1.63778e-05
3.89603e-08
1.67265e-05
4.22419e-08
1.70984e-05
4.60223e-08
1.74964e-05
5.03559e-08
1.79235e-05
5.53402e-08
1.83835e-05
6.11075e-08
1.88808e-05
6.78299e-08
1.94208e-05
7.5731e-08
2.001e-05
8.51055e-08
2.06563e-05
9.63478e-08
2.13697e-05
1.1e-07
2.21624e-05
1.2683e-07
2.30506e-05
1.47995e-07
2.4055e-05
1.75384e-07
2.52035e-05
2.12534e-07
2.65344e-05
2.67278e-07
2.81025e-05
3.60123e-07
2.99899e-05
5.52175e-07
3.23289e-05
1.04176e-06
3.53575e-05
2.51012e-06
3.95812e-05
7.41639e-06
4.65519e-05
2.53536e-05
9.96484e-05
1.57412e-05
3.08944e-08
1.605e-05
3.26104e-08
1.63778e-05
3.50761e-08
1.67265e-05
3.80275e-08
1.70985e-05
4.14303e-08
1.74964e-05
4.53322e-08
1.79235e-05
4.98204e-08
1.83835e-05
5.5014e-08
1.88809e-05
6.10683e-08
1.94209e-05
6.81847e-08
2.00101e-05
7.6629e-08
2.06565e-05
8.67571e-08
2.13698e-05
9.90583e-08
2.21626e-05
1.14229e-07
2.30509e-05
1.33316e-07
2.40554e-05
1.58046e-07
2.5204e-05
1.91674e-07
2.65354e-05
2.41485e-07
2.81045e-05
3.26717e-07
2.99948e-05
5.0505e-07
3.23436e-05
9.64363e-07
3.54066e-05
2.35109e-06
3.97606e-05
6.9944e-06
4.72949e-05
2.37882e-05
8.7531e-05
1.57412e-05
2.75024e-08
1.60501e-05
2.90046e-08
1.63778e-05
3.11884e-08
1.67265e-05
3.381e-08
1.70985e-05
3.68351e-08
1.74965e-05
4.03047e-08
1.79236e-05
4.42961e-08
1.83836e-05
4.89152e-08
1.88809e-05
5.42999e-08
1.9421e-05
6.063e-08
2.00102e-05
6.81418e-08
2.06566e-05
7.71526e-08
2.137e-05
8.80985e-08
2.21628e-05
1.01601e-07
2.30511e-05
1.18599e-07
2.40557e-05
1.40646e-07
2.52045e-05
1.70695e-07
2.65362e-05
2.15412e-07
2.81062e-05
2.92539e-07
2.99994e-05
4.55545e-07
3.23575e-05
8.79109e-07
3.5453e-05
2.16494e-06
3.99285e-05
6.47461e-06
4.79323e-05
2.18707e-05
7.61327e-05
1.57412e-05
2.40958e-08
1.60501e-05
2.53927e-08
1.63779e-05
2.72973e-08
1.67266e-05
2.95897e-08
1.70986e-05
3.2237e-08
1.74965e-05
3.52739e-08
1.79236e-05
3.87678e-08
1.83836e-05
4.28114e-08
1.8881e-05
4.75256e-08
1.94211e-05
5.30677e-08
2.00103e-05
5.9645e-08
2.06567e-05
6.75357e-08
2.13701e-05
7.71224e-08
2.2163e-05
8.89514e-08
2.30513e-05
1.03849e-07
2.4056e-05
1.23191e-07
2.5205e-05
1.49607e-07
2.6537e-05
1.89081e-07
2.81079e-05
2.57647e-07
3.00036e-05
4.03828e-07
3.23703e-05
7.86544e-07
3.54961e-05
1.9536e-06
4.00825e-05
5.86579e-06
4.84749e-05
1.96668e-05
6.53513e-05
1.57412e-05
2.06765e-08
1.60501e-05
2.17755e-08
1.63779e-05
2.34033e-08
1.67266e-05
2.53671e-08
1.70986e-05
2.76364e-08
1.74965e-05
3.02402e-08
1.79237e-05
3.3236e-08
1.83837e-05
3.67034e-08
1.88811e-05
4.0746e-08
1.94211e-05
4.54988e-08
2.00104e-05
5.11399e-08
2.06568e-05
5.79079e-08
2.13702e-05
6.61318e-08
2.21631e-05
7.62815e-08
2.30515e-05
8.90695e-08
2.40563e-05
1.05686e-07
2.52054e-05
1.28421e-07
2.65377e-05
1.6252e-07
2.81093e-05
2.22109e-07
3.00074e-05
3.50102e-07
3.2382e-05
6.87324e-07
3.55353e-05
1.7194e-06
4.02205e-05
5.17775e-06
4.89318e-05
1.72318e-05
5.50928e-05
1.57413e-05
1.72466e-08
1.60501e-05
1.81536e-08
1.63779e-05
1.95067e-08
1.67266e-05
2.11425e-08
1.70986e-05
2.30336e-08
1.74966e-05
2.5204e-08
1.79237e-05
2.77013e-08
1.83837e-05
3.05918e-08
1.88811e-05
3.39619e-08
1.94212e-05
3.79243e-08
2.00105e-05
4.26275e-08
2.06569e-05
4.82708e-08
2.13703e-05
5.51288e-08
2.21633e-05
6.35943e-08
2.30517e-05
7.42641e-08
2.40565e-05
8.81381e-08
2.52057e-05
1.07151e-07
2.65383e-05
1.35755e-07
2.81106e-05
1.85999e-07
3.00108e-05
2.94596e-07
3.23923e-05
5.82205e-07
3.55698e-05
1.46499e-06
4.03411e-05
4.42102e-06
4.93104e-05
1.46127e-05
4.52703e-05
1.57413e-05
1.38077e-08
1.60501e-05
1.45277e-08
1.63779e-05
1.5608e-08
1.67266e-05
1.69161e-08
1.70986e-05
1.84291e-08
1.74966e-05
2.01657e-08
1.79237e-05
2.2164e-08
1.83838e-05
2.44771e-08
1.88811e-05
2.7174e-08
1.94212e-05
3.03451e-08
2.00105e-05
3.41092e-08
2.06569e-05
3.8626e-08
2.13704e-05
4.41155e-08
2.21634e-05
5.08928e-08
2.30518e-05
5.94372e-08
2.40567e-05
7.05543e-08
2.5206e-05
8.58084e-08
2.65388e-05
1.08817e-07
2.81117e-05
1.49402e-07
3.00137e-05
2.37565e-07
3.24011e-05
4.72032e-07
3.55994e-05
1.19331e-06
4.0443e-05
3.60657e-06
4.9617e-05
1.18497e-05
3.58026e-05
1.57413e-05
1.03619e-08
1.60502e-05
1.08986e-08
1.63779e-05
1.17075e-08
1.67267e-05
1.26883e-08
1.70986e-05
1.38231e-08
1.74966e-05
1.51257e-08
1.79238e-05
1.66248e-08
1.83838e-05
1.83599e-08
1.88812e-05
2.03832e-08
1.94213e-05
2.27622e-08
2.00106e-05
2.55861e-08
2.0657e-05
2.8975e-08
2.13705e-05
3.30939e-08
2.21635e-05
3.81797e-08
2.30519e-05
4.45931e-08
2.40568e-05
5.29414e-08
2.52062e-05
6.44079e-08
2.65392e-05
8.17379e-08
2.81126e-05
1.12407e-07
3.0016e-05
1.79289e-07
3.24084e-05
3.57724e-07
3.56235e-05
9.07548e-07
4.05254e-05
2.74571e-06
4.98565e-05
8.97762e-06
2.66132e-05
1.57413e-05
6.91083e-09
1.60502e-05
7.26709e-09
1.63779e-05
7.80575e-09
1.67267e-05
8.45942e-09
1.70987e-05
9.21599e-09
1.74966e-05
1.00845e-08
1.79238e-05
1.1084e-08
1.83838e-05
1.2241e-08
1.88812e-05
1.359e-08
1.94213e-05
1.51764e-08
2.00106e-05
1.70594e-08
2.0657e-05
1.93192e-08
2.13705e-05
2.20661e-08
2.21635e-05
2.5458e-08
2.3052e-05
2.9736e-08
2.40569e-05
3.53065e-08
2.52064e-05
4.29633e-08
2.65395e-05
5.4552e-08
2.81132e-05
7.51089e-08
3.00178e-05
1.20061e-07
3.24138e-05
2.4026e-07
3.56419e-05
6.11061e-07
4.05877e-05
1.84992e-06
5.00328e-05
6.02713e-06
1.76293e-05
1.57413e-05
3.45628e-09
1.60502e-05
3.63396e-09
1.6378e-05
3.9031e-09
1.67267e-05
4.22988e-09
1.70987e-05
4.60818e-09
1.74966e-05
5.04247e-09
1.79238e-05
5.54225e-09
1.83838e-05
6.12078e-09
1.88812e-05
6.7954e-09
1.94213e-05
7.58866e-09
2.00106e-05
8.53031e-09
2.06571e-05
9.66039e-09
2.13706e-05
1.10341e-08
2.21636e-05
1.27304e-08
2.30521e-05
1.48702e-08
2.4057e-05
1.76569e-08
2.52065e-05
2.14891e-08
2.65397e-05
2.72941e-08
2.81137e-05
3.76059e-08
3.0019e-05
6.01922e-08
3.24176e-05
1.20666e-07
3.56543e-05
3.07348e-07
4.06295e-05
9.308e-07
5.01489e-05
3.02599e-06
8.78101e-06
1.57413e-05
1.60502e-05
1.6378e-05
1.67267e-05
1.70987e-05
1.74967e-05
1.79238e-05
1.83838e-05
1.88812e-05
1.94213e-05
2.00106e-05
2.06571e-05
2.13706e-05
2.21636e-05
2.30521e-05
2.40571e-05
2.52066e-05
2.65398e-05
2.81139e-05
3.00196e-05
3.24194e-05
3.56605e-05
4.06504e-05
5.02064e-05
)
;

boundaryField
{
    inlet
    {
        type            calculated;
        value           uniform -1.54495e-05;
    }
    outlet
    {
        type            calculated;
        value           nonuniform List<scalar> 
25
(
0.000494446
0.000494281
0.00049395
0.000493451
0.000492779
0.000491928
0.000490892
0.000489662
0.000488226
0.000486572
0.000484684
0.000482544
0.000480131
0.000477514
0.000475262
0.000473269
0.000471518
0.000469996
0.000468689
0.000467587
0.000466681
0.000465965
0.000465433
0.00046508
0.000464905
)
;
    }
    frontAndBack
    {
        type            empty;
        value           nonuniform 0();
    }
}


// ************************************************************************* //
