/*--------------------------------*- C++ -*----------------------------------*\
  =========                 |
  \\      /  F ield         | OpenFOAM: The Open Source CFD Toolbox
   \\    /   O peration     | Website:  https://openfoam.org
    \\  /    A nd           | Version:  6
     \\/     M anipulation  |
\*---------------------------------------------------------------------------*/
FoamFile
{
    version     2.0;
    format      ascii;
    class       volVectorField;
    location    "18";
    object      U;
}
// * * * * * * * * * * * * * * * * * * * * * * * * * * * * * * * * * * * * * //

dimensions      [0 1 -1 0 0 0 0];

internalField   nonuniform List<vector> 
625
(
(3.89881e-05 8.17117e-10 0)
(3.97384e-05 8.58566e-10 0)
(4.0534e-05 9.22118e-10 0)
(4.13795e-05 9.99651e-10 0)
(4.22801e-05 1.08958e-09 0)
(4.32424e-05 1.19293e-09 0)
(4.42735e-05 1.31197e-09 0)
(4.53821e-05 1.44988e-09 0)
(4.65785e-05 1.61085e-09 0)
(4.78749e-05 1.80031e-09 0)
(4.9286e-05 2.02546e-09 0)
(5.08299e-05 2.29598e-09 0)
(5.25287e-05 2.62528e-09 0)
(5.44104e-05 3.03263e-09 0)
(5.65103e-05 3.54761e-09 0)
(5.8874e-05 4.22063e-09 0)
(6.15616e-05 5.1515e-09 0)
(6.46537e-05 6.57579e-09 0)
(6.82594e-05 9.14415e-09 0)
(7.25258e-05 1.48653e-08 0)
(7.76373e-05 3.0379e-08 0)
(8.37563e-05 7.84752e-08 0)
(9.0699e-05 2.37717e-07 0)
(9.66629e-05 7.55452e-07 0)
(0.000667563 2.0582e-06 0)
(3.89881e-05 1.22547e-09 0)
(3.97384e-05 1.28775e-09 0)
(4.0534e-05 1.38312e-09 0)
(4.13795e-05 1.49943e-09 0)
(4.22802e-05 1.63432e-09 0)
(4.32424e-05 1.78934e-09 0)
(4.42735e-05 1.96789e-09 0)
(4.53821e-05 2.17475e-09 0)
(4.65785e-05 2.41618e-09 0)
(4.78749e-05 2.70035e-09 0)
(4.9286e-05 3.03804e-09 0)
(5.08299e-05 3.44379e-09 0)
(5.25288e-05 3.93768e-09 0)
(5.44105e-05 4.5486e-09 0)
(5.65103e-05 5.3209e-09 0)
(5.88741e-05 6.33005e-09 0)
(6.15618e-05 7.7254e-09 0)
(6.46539e-05 9.85911e-09 0)
(6.82598e-05 1.37031e-08 0)
(7.25268e-05 2.22564e-08 0)
(7.76405e-05 4.5431e-08 0)
(8.37667e-05 1.17255e-07 0)
(9.07328e-05 3.55169e-07 0)
(9.67539e-05 1.13055e-06 0)
(0.000667422 3.09564e-06 0)
(3.89881e-05 2.04178e-09 0)
(3.97384e-05 2.14592e-09 0)
(4.0534e-05 2.30503e-09 0)
(4.13795e-05 2.49892e-09 0)
(4.22802e-05 2.72372e-09 0)
(4.32424e-05 2.98207e-09 0)
(4.42735e-05 3.27962e-09 0)
(4.53822e-05 3.62435e-09 0)
(4.65786e-05 4.02667e-09 0)
(4.7875e-05 4.50021e-09 0)
(4.92861e-05 5.06293e-09 0)
(5.083e-05 5.73903e-09 0)
(5.25289e-05 6.56198e-09 0)
(5.44106e-05 7.57985e-09 0)
(5.65105e-05 8.86642e-09 0)
(5.88742e-05 1.05471e-08 0)
(6.1562e-05 1.28695e-08 0)
(6.46543e-05 1.64167e-08 0)
(6.82607e-05 2.27948e-08 0)
(7.25289e-05 3.69562e-08 0)
(7.76468e-05 7.52622e-08 0)
(8.37873e-05 1.93903e-07 0)
(9.08003e-05 5.87259e-07 0)
(9.69369e-05 1.8754e-06 0)
(0.00066714 5.18737e-06 0)
(3.89881e-05 2.85708e-09 0)
(3.97385e-05 3.00361e-09 0)
(4.05341e-05 3.22666e-09 0)
(4.13795e-05 3.49819e-09 0)
(4.22802e-05 3.81292e-09 0)
(4.32424e-05 4.17455e-09 0)
(4.42736e-05 4.59106e-09 0)
(4.53822e-05 5.07359e-09 0)
(4.65786e-05 5.63672e-09 0)
(4.7875e-05 6.29951e-09 0)
(4.92862e-05 7.0871e-09 0)
(5.08301e-05 8.03336e-09 0)
(5.2529e-05 9.18504e-09 0)
(5.44107e-05 1.06094e-08 0)
(5.65106e-05 1.24093e-08 0)
(5.88745e-05 1.47597e-08 0)
(6.15623e-05 1.80045e-08 0)
(6.46549e-05 2.29516e-08 0)
(6.82619e-05 3.18216e-08 0)
(7.25321e-05 5.14513e-08 0)
(7.76561e-05 1.04416e-07 0)
(8.38179e-05 2.68286e-07 0)
(9.0901e-05 8.12318e-07 0)
(9.72139e-05 2.60659e-06 0)
(0.000666716 7.32159e-06 0)
(3.89881e-05 3.67095e-09 0)
(3.97385e-05 3.86061e-09 0)
(4.05341e-05 4.14793e-09 0)
(4.13795e-05 4.49718e-09 0)
(4.22802e-05 4.90181e-09 0)
(4.32425e-05 5.36669e-09 0)
(4.42736e-05 5.90208e-09 0)
(4.53823e-05 6.52232e-09 0)
(4.65787e-05 7.24614e-09 0)
(4.78751e-05 8.09803e-09 0)
(4.92863e-05 9.11028e-09 0)
(5.08302e-05 1.03264e-08 0)
(5.25291e-05 1.18064e-08 0)
(5.44109e-05 1.36365e-08 0)
(5.65109e-05 1.59486e-08 0)
(5.88748e-05 1.8966e-08 0)
(6.15628e-05 2.31268e-08 0)
(6.46557e-05 2.94552e-08 0)
(6.82635e-05 4.07587e-08 0)
(7.25362e-05 6.56641e-08 0)
(7.76685e-05 1.32635e-07 0)
(8.38581e-05 3.39534e-07 0)
(9.10341e-05 1.02754e-06 0)
(9.75879e-05 3.31788e-06 0)
(0.000666147 9.51643e-06 0)
(3.89881e-05 4.48297e-09 0)
(3.97385e-05 4.71675e-09 0)
(4.05341e-05 5.06873e-09 0)
(4.13796e-05 5.49579e-09 0)
(4.22803e-05 5.99031e-09 0)
(4.32425e-05 6.55838e-09 0)
(4.42737e-05 7.21258e-09 0)
(4.53824e-05 7.9704e-09 0)
(4.65788e-05 8.85476e-09 0)
(4.78752e-05 9.89554e-09 0)
(4.92864e-05 1.11322e-08 0)
(5.08303e-05 1.26178e-08 0)
(5.25293e-05 1.44255e-08 0)
(5.44111e-05 1.66605e-08 0)
(5.65112e-05 1.94832e-08 0)
(5.88752e-05 2.31644e-08 0)
(6.15634e-05 2.82329e-08 0)
(6.46567e-05 3.59192e-08 0)
(6.82655e-05 4.95826e-08 0)
(7.25413e-05 7.95207e-08 0)
(7.76835e-05 1.59674e-07 0)
(8.39074e-05 4.06815e-07 0)
(9.11988e-05 1.23014e-06 0)
(9.80628e-05 4.00226e-06 0)
(0.000665432 1.17912e-05 0)
(3.89881e-05 5.29271e-09 0)
(3.97385e-05 5.57184e-09 0)
(4.05342e-05 5.98896e-09 0)
(4.13796e-05 6.49395e-09 0)
(4.22804e-05 7.07835e-09 0)
(4.32426e-05 7.74954e-09 0)
(4.42738e-05 8.52243e-09 0)
(4.53824e-05 9.4177e-09 0)
(4.65789e-05 1.04624e-08 0)
(4.78753e-05 1.16918e-08 0)
(4.92865e-05 1.31525e-08 0)
(5.08305e-05 1.49071e-08 0)
(5.25295e-05 1.70419e-08 0)
(5.44114e-05 1.96807e-08 0)
(5.65115e-05 2.30122e-08 0)
(5.88757e-05 2.73531e-08 0)
(6.15641e-05 3.33196e-08 0)
(6.46578e-05 4.23357e-08 0)
(6.82679e-05 5.82712e-08 0)
(7.25472e-05 9.29525e-08 0)
(7.77012e-05 1.85305e-07 0)
(8.39651e-05 4.69343e-07 0)
(9.13937e-05 1.41736e-06 0)
(9.8644e-05 4.65163e-06 0)
(0.000664568 1.41666e-05 0)
(3.89881e-05 6.09974e-09 0)
(3.97386e-05 6.4257e-09 0)
(4.05342e-05 6.90852e-09 0)
(4.13797e-05 7.49157e-09 0)
(4.22804e-05 8.16584e-09 0)
(4.32427e-05 8.94005e-09 0)
(4.42739e-05 9.83151e-09 0)
(4.53826e-05 1.08641e-08 0)
(4.6579e-05 1.20689e-08 0)
(4.78755e-05 1.34867e-08 0)
(4.92867e-05 1.5171e-08 0)
(5.08307e-05 1.71941e-08 0)
(5.25298e-05 1.96551e-08 0)
(5.44117e-05 2.26965e-08 0)
(5.65119e-05 2.65344e-08 0)
(5.88762e-05 3.15307e-08 0)
(6.15649e-05 3.83837e-08 0)
(6.46592e-05 4.86974e-08 0)
(6.82706e-05 6.68043e-08 0)
(7.2554e-05 1.05897e-07 0)
(7.77212e-05 2.09322e-07 0)
(8.40306e-05 5.26395e-07 0)
(9.1617e-05 1.58651e-06 0)
(9.93377e-05 5.25653e-06 0)
(0.00066355 1.66656e-05 0)
(3.89882e-05 6.90359e-09 0)
(3.97386e-05 7.27819e-09 0)
(4.05343e-05 7.82733e-09 0)
(4.13798e-05 8.48859e-09 0)
(4.22805e-05 9.25269e-09 0)
(4.32428e-05 1.01298e-08 0)
(4.4274e-05 1.11397e-08 0)
(4.53827e-05 1.23094e-08 0)
(4.65791e-05 1.36741e-08 0)
(4.78756e-05 1.52799e-08 0)
(4.92869e-05 1.71874e-08 0)
(5.0831e-05 1.94783e-08 0)
(5.25301e-05 2.22647e-08 0)
(5.44121e-05 2.57072e-08 0)
(5.65124e-05 3.00491e-08 0)
(5.88768e-05 3.56954e-08 0)
(6.15658e-05 4.34222e-08 0)
(6.46607e-05 5.49974e-08 0)
(6.82736e-05 7.51637e-08 0)
(7.25614e-05 1.18298e-07 0)
(7.77432e-05 2.31541e-07 0)
(8.41028e-05 5.77317e-07 0)
(9.18667e-05 1.73498e-06 0)
(0.000100152 5.80579e-06 0)
(0.000662376 1.93135e-05 0)
(3.89882e-05 7.70379e-09 0)
(3.97387e-05 8.12913e-09 0)
(4.05343e-05 8.7453e-09 0)
(4.13798e-05 9.48493e-09 0)
(4.22806e-05 1.03388e-08 0)
(4.32429e-05 1.13188e-08 0)
(4.42741e-05 1.24469e-08 0)
(4.53828e-05 1.37534e-08 0)
(4.65793e-05 1.52777e-08 0)
(4.78758e-05 1.70712e-08 0)
(4.92871e-05 1.92014e-08 0)
(5.08312e-05 2.17594e-08 0)
(5.25304e-05 2.48701e-08 0)
(5.44125e-05 2.87122e-08 0)
(5.65129e-05 3.35552e-08 0)
(5.88776e-05 3.98458e-08 0)
(6.15668e-05 4.84325e-08 0)
(6.46624e-05 6.12299e-08 0)
(6.82769e-05 8.33333e-08 0)
(7.25696e-05 1.30108e-07 0)
(7.77671e-05 2.51803e-07 0)
(8.41809e-05 6.2154e-07 0)
(9.21399e-05 1.86033e-06 0)
(0.000101096 6.28614e-06 0)
(0.000661038 2.21387e-05 0)
(3.89882e-05 8.49984e-09 0)
(3.97387e-05 8.97841e-09 0)
(4.05344e-05 9.66234e-09 0)
(4.13799e-05 1.04805e-08 0)
(4.22807e-05 1.14242e-08 0)
(4.3243e-05 1.25068e-08 0)
(4.42742e-05 1.3753e-08 0)
(4.5383e-05 1.51961e-08 0)
(4.65795e-05 1.68797e-08 0)
(4.7876e-05 1.88604e-08 0)
(4.92874e-05 2.12127e-08 0)
(5.08315e-05 2.4037e-08 0)
(5.25308e-05 2.74709e-08 0)
(5.4413e-05 3.17108e-08 0)
(5.65135e-05 3.70519e-08 0)
(5.88783e-05 4.39805e-08 0)
(6.15679e-05 5.34119e-08 0)
(6.46642e-05 6.73894e-08 0)
(6.82805e-05 9.12998e-08 0)
(7.25783e-05 1.41288e-07 0)
(7.77924e-05 2.6998e-07 0)
(8.42637e-05 6.58595e-07 0)
(9.24331e-05 1.96033e-06 0)
(0.00010218 6.68176e-06 0)
(0.000659533 2.51733e-05 0)
(3.89882e-05 9.29124e-09 0)
(3.97388e-05 9.8259e-09 0)
(4.05345e-05 1.05784e-08 0)
(4.138e-05 1.14752e-08 0)
(4.22808e-05 1.25086e-08 0)
(4.32431e-05 1.36938e-08 0)
(4.42743e-05 1.50579e-08 0)
(4.53831e-05 1.66373e-08 0)
(4.65797e-05 1.84798e-08 0)
(4.78763e-05 2.06472e-08 0)
(4.92876e-05 2.32211e-08 0)
(5.08319e-05 2.63108e-08 0)
(5.25312e-05 3.00667e-08 0)
(5.44135e-05 3.47023e-08 0)
(5.65142e-05 4.05382e-08 0)
(5.88792e-05 4.80981e-08 0)
(6.15692e-05 5.83583e-08 0)
(6.46661e-05 7.34714e-08 0)
(6.82843e-05 9.90523e-08 0)
(7.25875e-05 1.51807e-07 0)
(7.78188e-05 2.85974e-07 0)
(8.43499e-05 6.88119e-07 0)
(9.27422e-05 2.03309e-06 0)
(0.000103417 6.9737e-06 0)
(0.000657853 2.84543e-05 0)
(3.89883e-05 1.00196e-08 0)
(3.97389e-05 1.0609e-08 0)
(4.05346e-05 1.14247e-08 0)
(4.13801e-05 1.2393e-08 0)
(4.22809e-05 1.35074e-08 0)
(4.32432e-05 1.47849e-08 0)
(4.42745e-05 1.62546e-08 0)
(4.53833e-05 1.7956e-08 0)
(4.65799e-05 1.99401e-08 0)
(4.78765e-05 2.22734e-08 0)
(4.92879e-05 2.50431e-08 0)
(5.08322e-05 2.83665e-08 0)
(5.25316e-05 3.24042e-08 0)
(5.4414e-05 3.73843e-08 0)
(5.65149e-05 4.36471e-08 0)
(5.88801e-05 5.17451e-08 0)
(6.15705e-05 6.26968e-08 0)
(6.46682e-05 7.87176e-08 0)
(6.82883e-05 1.05517e-07 0)
(7.2597e-05 1.59936e-07 0)
(7.7846e-05 2.96353e-07 0)
(8.44384e-05 7.01304e-07 0)
(9.30617e-05 2.04972e-06 0)
(0.000104822 7.03314e-06 0)
(0.00065599 3.14375e-05 0)
(3.89883e-05 9.87996e-09 0)
(3.97389e-05 1.04597e-08 0)
(4.05347e-05 1.12617e-08 0)
(4.13802e-05 1.22135e-08 0)
(4.2281e-05 1.33085e-08 0)
(4.32434e-05 1.45633e-08 0)
(4.42747e-05 1.60065e-08 0)
(4.53835e-05 1.76766e-08 0)
(4.65801e-05 1.96234e-08 0)
(4.78768e-05 2.19118e-08 0)
(4.92882e-05 2.46271e-08 0)
(5.08326e-05 2.78835e-08 0)
(5.25321e-05 3.18377e-08 0)
(5.44146e-05 3.67117e-08 0)
(5.65156e-05 4.28368e-08 0)
(5.88811e-05 5.07507e-08 0)
(6.15719e-05 6.14434e-08 0)
(6.46704e-05 7.70679e-08 0)
(6.82924e-05 1.03169e-07 0)
(7.26065e-05 1.56085e-07 0)
(7.78729e-05 2.88505e-07 0)
(8.45253e-05 6.80887e-07 0)
(9.33754e-05 1.98516e-06 0)
(0.000106356 6.79865e-06 0)
(0.000654006 3.04314e-05 0)
(3.89883e-05 8.98695e-09 0)
(3.9739e-05 9.50145e-09 0)
(4.05347e-05 1.02251e-08 0)
(4.13803e-05 1.10869e-08 0)
(4.22811e-05 1.20791e-08 0)
(4.32435e-05 1.32164e-08 0)
(4.42748e-05 1.45244e-08 0)
(4.53837e-05 1.60378e-08 0)
(4.65803e-05 1.78017e-08 0)
(4.7877e-05 1.98749e-08 0)
(4.92885e-05 2.23345e-08 0)
(5.08329e-05 2.52839e-08 0)
(5.25325e-05 2.8865e-08 0)
(5.44151e-05 3.32793e-08 0)
(5.65163e-05 3.88284e-08 0)
(5.8882e-05 4.60048e-08 0)
(6.15731e-05 5.57248e-08 0)
(6.46724e-05 7.00064e-08 0)
(6.82962e-05 9.41042e-08 0)
(7.26155e-05 1.4362e-07 0)
(7.78985e-05 2.69079e-07 0)
(8.46081e-05 6.43828e-07 0)
(9.36735e-05 1.89371e-06 0)
(0.000107666 6.4803e-06 0)
(0.000652267 2.65306e-05 0)
(3.89883e-05 8.1455e-09 0)
(3.97391e-05 8.60252e-09 0)
(4.05348e-05 9.25455e-09 0)
(4.13804e-05 1.00337e-08 0)
(4.22812e-05 1.09316e-08 0)
(4.32436e-05 1.1961e-08 0)
(4.42749e-05 1.31451e-08 0)
(4.53838e-05 1.45152e-08 0)
(4.65805e-05 1.61123e-08 0)
(4.78772e-05 1.79895e-08 0)
(4.92888e-05 2.02168e-08 0)
(5.08332e-05 2.28881e-08 0)
(5.25329e-05 2.61322e-08 0)
(5.44156e-05 3.01324e-08 0)
(5.65169e-05 3.51639e-08 0)
(5.88828e-05 4.16787e-08 0)
(6.15743e-05 5.05261e-08 0)
(6.46743e-05 6.35954e-08 0)
(6.82998e-05 8.5855e-08 0)
(7.2624e-05 1.32153e-07 0)
(7.7923e-05 2.50765e-07 0)
(8.46877e-05 6.07651e-07 0)
(9.3959e-05 1.80135e-06 0)
(0.000108819 6.14273e-06 0)
(0.000650705 2.33974e-05 0)
(3.89884e-05 7.2996e-09 0)
(3.97391e-05 7.70187e-09 0)
(4.05349e-05 8.28306e-09 0)
(4.13805e-05 8.97968e-09 0)
(4.22813e-05 9.78318e-09 0)
(4.32437e-05 1.07046e-08 0)
(4.42751e-05 1.17646e-08 0)
(4.5384e-05 1.29911e-08 0)
(4.65807e-05 1.4421e-08 0)
(4.78774e-05 1.61018e-08 0)
(4.9289e-05 1.80963e-08 0)
(5.08335e-05 2.04887e-08 0)
(5.25332e-05 2.33946e-08 0)
(5.4416e-05 2.69788e-08 0)
(5.65174e-05 3.14894e-08 0)
(5.88835e-05 3.73365e-08 0)
(6.15753e-05 4.52962e-08 0)
(6.46759e-05 5.71121e-08 0)
(6.83031e-05 7.7407e-08 0)
(7.2632e-05 1.20074e-07 0)
(7.7946e-05 2.30434e-07 0)
(8.47631e-05 5.64504e-07 0)
(9.4227e-05 1.68363e-06 0)
(0.000109826 5.70736e-06 0)
(0.000649313 2.0458e-05 0)
(3.89884e-05 6.44978e-09 0)
(3.97392e-05 6.79966e-09 0)
(4.05349e-05 7.3107e-09 0)
(4.13805e-05 7.92496e-09 0)
(4.22814e-05 8.63401e-09 0)
(4.32438e-05 9.44732e-09 0)
(4.42752e-05 1.0383e-08 0)
(4.53841e-05 1.14658e-08 0)
(4.65808e-05 1.27282e-08 0)
(4.78776e-05 1.42122e-08 0)
(4.92892e-05 1.59733e-08 0)
(5.08338e-05 1.8086e-08 0)
(5.25335e-05 2.06526e-08 0)
(5.44164e-05 2.38191e-08 0)
(5.65179e-05 2.78061e-08 0)
(5.88842e-05 3.29796e-08 0)
(6.15762e-05 4.00377e-08 0)
(6.46775e-05 5.05616e-08 0)
(6.83061e-05 6.87732e-08 0)
(7.26393e-05 1.07422e-07 0)
(7.79674e-05 2.08207e-07 0)
(8.48331e-05 5.14818e-07 0)
(9.44733e-05 1.54255e-06 0)
(0.000110697 5.19219e-06 0)
(0.000648088 1.76855e-05 0)
(3.89884e-05 5.59654e-09 0)
(3.97392e-05 5.89602e-09 0)
(4.0535e-05 6.33757e-09 0)
(4.13806e-05 6.86961e-09 0)
(4.22815e-05 7.48418e-09 0)
(4.32439e-05 8.18926e-09 0)
(4.42753e-05 9.00048e-09 0)
(4.53842e-05 9.93935e-09 0)
(4.65809e-05 1.10339e-08 0)
(4.78777e-05 1.23208e-08 0)
(4.92894e-05 1.38481e-08 0)
(5.0834e-05 1.56804e-08 0)
(5.25338e-05 1.79068e-08 0)
(5.44167e-05 2.06541e-08 0)
(5.65183e-05 2.41149e-08 0)
(5.88847e-05 2.86096e-08 0)
(6.15771e-05 3.47535e-08 0)
(6.46788e-05 4.39502e-08 0)
(6.83088e-05 5.99695e-08 0)
(7.2646e-05 9.42412e-08 0)
(7.79868e-05 1.84234e-07 0)
(8.48966e-05 4.59125e-07 0)
(9.46947e-05 1.38044e-06 0)
(0.00011144 4.61233e-06 0)
(0.000647025 1.50555e-05 0)
(3.89884e-05 4.74039e-09 0)
(3.97392e-05 4.99113e-09 0)
(4.0535e-05 5.36375e-09 0)
(4.13807e-05 5.8137e-09 0)
(4.22815e-05 6.33376e-09 0)
(4.3244e-05 6.93052e-09 0)
(4.42753e-05 7.61716e-09 0)
(4.53843e-05 8.41189e-09 0)
(4.6581e-05 9.33849e-09 0)
(4.78779e-05 1.04279e-08 0)
(4.92896e-05 1.17209e-08 0)
(5.08342e-05 1.32723e-08 0)
(5.2534e-05 1.51576e-08 0)
(5.4417e-05 1.74845e-08 0)
(5.65187e-05 2.04167e-08 0)
(5.88852e-05 2.4228e-08 0)
(6.15778e-05 2.94465e-08 0)
(6.468e-05 3.72843e-08 0)
(6.83111e-05 5.10135e-08 0)
(7.26518e-05 8.05871e-08 0)
(7.80039e-05 1.58691e-07 0)
(8.49527e-05 3.98048e-07 0)
(9.48886e-05 1.19985e-06 0)
(0.000112064 3.98057e-06 0)
(0.000646121 1.25454e-05 0)
(3.89884e-05 3.88179e-09 0)
(3.97393e-05 4.08515e-09 0)
(4.05351e-05 4.38934e-09 0)
(4.13807e-05 4.75732e-09 0)
(4.22816e-05 5.18284e-09 0)
(4.3244e-05 5.67121e-09 0)
(4.42754e-05 6.23316e-09 0)
(4.53844e-05 6.8836e-09 0)
(4.65811e-05 7.64199e-09 0)
(4.7878e-05 8.53369e-09 0)
(4.92897e-05 9.5921e-09 0)
(5.08343e-05 1.08621e-08 0)
(5.25342e-05 1.24055e-08 0)
(5.44172e-05 1.43109e-08 0)
(5.6519e-05 1.67127e-08 0)
(5.88856e-05 1.98366e-08 0)
(6.15784e-05 2.41199e-08 0)
(6.4681e-05 3.05714e-08 0)
(6.83131e-05 4.19252e-08 0)
(7.26567e-05 6.65201e-08 0)
(7.80185e-05 1.3178e-07 0)
(8.50007e-05 3.32287e-07 0)
(9.5053e-05 1.00345e-06 0)
(0.000112575 3.30781e-06 0)
(0.000645373 1.01341e-05 0)
(3.89884e-05 3.02121e-09 0)
(3.97393e-05 3.17828e-09 0)
(4.05351e-05 3.41444e-09 0)
(4.13807e-05 3.70054e-09 0)
(4.22816e-05 4.03152e-09 0)
(4.32441e-05 4.41142e-09 0)
(4.42755e-05 4.8486e-09 0)
(4.53844e-05 5.35462e-09 0)
(4.65812e-05 5.94465e-09 0)
(4.78781e-05 6.63841e-09 0)
(4.92898e-05 7.46192e-09 0)
(5.08345e-05 8.45012e-09 0)
(5.25344e-05 9.65118e-09 0)
(5.44174e-05 1.11341e-08 0)
(5.65193e-05 1.30038e-08 0)
(5.8886e-05 1.5437e-08 0)
(6.15788e-05 1.8777e-08 0)
(6.46818e-05 2.38193e-08 0)
(6.83147e-05 3.27262e-08 0)
(7.26608e-05 5.21068e-08 0)
(7.80305e-05 1.0372e-07 0)
(8.50399e-05 2.62607e-07 0)
(9.51862e-05 7.94035e-07 0)
(0.000112977 2.60342e-06 0)
(0.000644777 7.80198e-06 0)
(3.89884e-05 2.15909e-09 0)
(3.97393e-05 2.27071e-09 0)
(4.05351e-05 2.43916e-09 0)
(4.13808e-05 2.64346e-09 0)
(4.22817e-05 2.87988e-09 0)
(4.32441e-05 3.15128e-09 0)
(4.42755e-05 3.46359e-09 0)
(4.53845e-05 3.82511e-09 0)
(4.65813e-05 4.24665e-09 0)
(4.78781e-05 4.74231e-09 0)
(4.92899e-05 5.33069e-09 0)
(5.08346e-05 6.03677e-09 0)
(5.25345e-05 6.895e-09 0)
(5.44176e-05 7.95471e-09 0)
(5.65194e-05 9.29113e-09 0)
(5.88862e-05 1.1031e-08 0)
(6.15792e-05 1.34214e-08 0)
(6.46824e-05 1.70362e-08 0)
(6.83159e-05 2.34395e-08 0)
(7.26638e-05 3.74188e-08 0)
(7.80396e-05 7.4748e-08 0)
(8.50697e-05 1.89826e-07 0)
(9.52871e-05 5.74454e-07 0)
(0.000113276 1.87559e-06 0)
(0.000644332 5.53032e-06 0)
(3.89884e-05 1.29589e-09 0)
(3.97393e-05 1.36263e-09 0)
(4.05351e-05 1.46361e-09 0)
(4.13808e-05 1.58616e-09 0)
(4.22817e-05 1.72802e-09 0)
(4.32441e-05 1.89087e-09 0)
(4.42755e-05 2.07828e-09 0)
(4.53845e-05 2.29522e-09 0)
(4.65813e-05 2.54818e-09 0)
(4.78782e-05 2.84563e-09 0)
(4.92899e-05 3.19872e-09 0)
(5.08346e-05 3.62245e-09 0)
(5.25346e-05 4.13752e-09 0)
(5.44177e-05 4.77355e-09 0)
(5.65196e-05 5.57577e-09 0)
(5.88864e-05 6.62043e-09 0)
(6.15794e-05 8.05655e-09 0)
(6.46828e-05 1.02308e-08 0)
(6.83167e-05 1.40893e-08 0)
(7.26659e-05 2.25317e-08 0)
(7.80457e-05 4.51158e-08 0)
(8.50898e-05 1.14801e-07 0)
(9.53548e-05 3.4759e-07 0)
(0.000113473 1.13164e-06 0)
(0.000644037 3.30129e-06 0)
(3.89884e-05 8.6407e-10 0)
(3.97393e-05 9.08489e-10 0)
(4.05352e-05 9.75774e-10 0)
(4.13808e-05 1.05747e-09 0)
(4.22817e-05 1.15204e-09 0)
(4.32442e-05 1.26062e-09 0)
(4.42756e-05 1.38556e-09 0)
(4.53845e-05 1.53019e-09 0)
(4.65813e-05 1.69885e-09 0)
(4.78782e-05 1.89716e-09 0)
(4.929e-05 2.13258e-09 0)
(5.08346e-05 2.4151e-09 0)
(5.25346e-05 2.75852e-09 0)
(5.44177e-05 3.18261e-09 0)
(5.65196e-05 3.71754e-09 0)
(5.88865e-05 4.41423e-09 0)
(6.15796e-05 5.37227e-09 0)
(6.4683e-05 6.82353e-09 0)
(6.83171e-05 9.40148e-09 0)
(7.26669e-05 1.50481e-08 0)
(7.80488e-05 3.01666e-08 0)
(8.51e-05 7.6837e-08 0)
(9.53887e-05 2.327e-07 0)
(0.000113571 7.56497e-07 0)
(0.000643889 2.19525e-06 0)
)
;

boundaryField
{
    inlet
    {
        type            fixedValue;
        value           uniform (3.86237e-05 0 0);
    }
    outlet
    {
        type            zeroGradient;
    }
    frontAndBack
    {
        type            empty;
    }
}


// ************************************************************************* //
