/*--------------------------------*- C++ -*----------------------------------*\
  =========                 |
  \\      /  F ield         | OpenFOAM: The Open Source CFD Toolbox
   \\    /   O peration     | Website:  https://openfoam.org
    \\  /    A nd           | Version:  6
     \\/     M anipulation  |
\*---------------------------------------------------------------------------*/
FoamFile
{
    version     2.0;
    format      ascii;
    class       volScalarField;
    location    "168";
    object      theta;
}
// * * * * * * * * * * * * * * * * * * * * * * * * * * * * * * * * * * * * * //

dimensions      [0 0 0 0 0 0 0];

internalField   nonuniform List<scalar> 
500
(
0.367851
0.366668
0.364348
0.360981
0.356688
0.35161
0.345902
0.339714
0.33319
0.326458
0.31963
0.312798
0.306037
0.299405
0.292944
0.286687
0.280654
0.274858
0.269306
0.263999
0.258935
0.254109
0.249515
0.245144
0.240988
0.237037
0.233282
0.229714
0.226323
0.2231
0.220037
0.217125
0.214356
0.211724
0.20922
0.206839
0.204574
0.202419
0.20037
0.198419
0.196563
0.194798
0.193118
0.19152
0.19
0.188554
0.187179
0.185872
0.184629
0.183448
0.182326
0.18126
0.180248
0.179287
0.178376
0.177511
0.176691
0.175914
0.175177
0.174479
0.173819
0.173194
0.172602
0.172043
0.171515
0.171015
0.170543
0.170098
0.169677
0.169281
0.168906
0.168554
0.168221
0.167908
0.167613
0.167335
0.167073
0.166827
0.166596
0.166378
0.166173
0.16598
0.165799
0.165629
0.165469
0.165319
0.165178
0.165046
0.164922
0.164805
0.164696
0.164593
0.164497
0.164406
0.164321
0.164242
0.164167
0.164097
0.164032
0.16397
0.163913
0.163859
0.163808
0.163761
0.163716
0.163675
0.163635
0.163599
0.163565
0.163533
0.163502
0.163474
0.163448
0.163423
0.1634
0.163378
0.163358
0.163339
0.163321
0.163304
0.163289
0.163274
0.16326
0.163248
0.163236
0.163224
0.163214
0.163204
0.163195
0.163186
0.163178
0.16317
0.163163
0.163156
0.16315
0.163144
0.163139
0.163134
0.163129
0.163125
0.16312
0.163116
0.163113
0.163109
0.163106
0.163103
0.1631
0.163098
0.163095
0.163093
0.163091
0.163089
0.163087
0.163085
0.163083
0.163082
0.16308
0.163079
0.163078
0.163076
0.163075
0.163074
0.163073
0.163072
0.163071
0.163071
0.16307
0.163069
0.163069
0.163068
0.163067
0.163067
0.163066
0.163066
0.163065
0.163065
0.163065
0.163064
0.163064
0.163063
0.163063
0.163063
0.163063
0.163062
0.163062
0.163062
0.163062
0.163062
0.163061
0.163061
0.163061
0.163061
0.163061
0.163061
0.163061
0.16306
0.16306
0.16306
0.16306
0.16306
0.16306
0.16306
0.16306
0.16306
0.16306
0.16306
0.16306
0.16306
0.163059
0.163059
0.163059
0.163059
0.163059
0.163059
0.163059
0.163059
0.163059
0.163059
0.163059
0.163059
0.163059
0.163059
0.163059
0.163059
0.163059
0.163059
0.163059
0.163059
0.163059
0.163059
0.163059
0.163059
0.163059
0.163059
0.163059
0.163059
0.163059
0.163059
0.163059
0.163059
0.163059
0.163059
0.163059
0.163059
0.163059
0.163059
0.163059
0.163059
0.163059
0.163059
0.163059
0.163059
0.163059
0.163059
0.163059
0.163059
0.163059
0.163059
0.163059
0.163059
0.163059
0.163059
0.163059
0.163059
0.163059
0.163059
0.163059
0.163059
0.163059
0.163059
0.163059
0.163059
0.163059
0.163059
0.163059
0.163059
0.163059
0.163059
0.163059
0.163059
0.163059
0.163059
0.163059
0.163059
0.163059
0.163059
0.163059
0.163059
0.163059
0.163059
0.163059
0.163059
0.163059
0.163059
0.163059
0.163059
0.163059
0.163059
0.163059
0.163059
0.163059
0.163059
0.163059
0.163059
0.163059
0.163059
0.163059
0.163059
0.163059
0.163059
0.163059
0.163059
0.163059
0.163059
0.163059
0.163059
0.163059
0.163059
0.163059
0.163059
0.163059
0.163059
0.163059
0.163059
0.163059
0.163059
0.163059
0.163059
0.163059
0.163059
0.163059
0.163059
0.163059
0.163059
0.163059
0.163059
0.163059
0.163059
0.163059
0.163059
0.163059
0.163059
0.163059
0.163059
0.163059
0.163059
0.163059
0.163059
0.163059
0.163059
0.163059
0.163059
0.163059
0.163059
0.163059
0.163059
0.163059
0.163059
0.163059
0.163059
0.163059
0.163059
0.163059
0.163059
0.163059
0.163059
0.163059
0.163059
0.163059
0.163059
0.163059
0.163059
0.163059
0.163059
0.163059
0.163059
0.163059
0.163059
0.163059
0.163059
0.163059
0.163059
0.163059
0.163059
0.163059
0.163059
0.163059
0.163059
0.163059
0.163059
0.163059
0.163059
0.163059
0.163059
0.163059
0.163059
0.163059
0.163059
0.163059
0.163059
0.163059
0.163059
0.163059
0.163059
0.163059
0.163059
0.163059
0.163059
0.163059
0.163059
0.163059
0.163059
0.163059
0.163059
0.163059
0.163059
0.163059
0.163059
0.163059
0.163059
0.163059
0.163059
0.163059
0.163059
0.163059
0.163059
0.163059
0.163059
0.163059
0.163059
0.163059
0.163059
0.163059
0.163059
0.163059
0.163059
0.163059
0.163059
0.163059
0.163059
0.163059
0.163059
0.163059
0.163059
0.163059
0.163059
0.163059
0.163059
0.163059
0.163059
0.163059
0.163059
0.163059
0.163059
0.163059
0.163059
0.163059
0.163059
0.163059
0.163059
0.163059
0.163059
0.163059
0.163059
0.163059
0.163059
0.163059
0.163059
0.163059
0.163059
0.163059
0.163059
0.163059
0.163059
0.163059
0.163059
0.163059
0.163059
0.163059
0.163059
0.163059
0.163059
0.163059
0.163059
0.163059
0.163059
0.163059
0.163059
0.163059
0.163059
0.163059
0.163059
0.163059
0.163059
0.163059
0.163059
0.163059
0.163059
0.163059
0.163059
)
;

boundaryField
{
    top
    {
        type            calculated;
        value           uniform 0.163059;
    }
    bottom
    {
        type            calculated;
        value           uniform 0.368;
    }
    frontAndBack
    {
        type            empty;
    }
}


// ************************************************************************* //
