/*--------------------------------*- C++ -*----------------------------------*\
| =========                 |                                                 |
| \\      /  F ield         | OpenFOAM: The Open Source CFD Toolbox           |
|  \\    /   O peration     | Version:  2.4.0                                 |
|   \\  /    A nd           | Web:      www.OpenFOAM.org                      |
|    \\/     M anipulation  |                                                 |
\*---------------------------------------------------------------------------*/
FoamFile
{
    version     2.0;
    format      ascii;
    class       volScalarField;
    location    "0";
    object      K;
}
// * * * * * * * * * * * * * * * * * * * * * * * * * * * * * * * * * * * * * //

dimensions      [0 2 0 0 0 0 0];

internalField   nonuniform List<scalar> 
72000
(
9.37618e-12
8.82944e-12
2.02393e-12
9.39188e-12
2.93731e-12
4.29507e-12
4.22172e-12
6.60605e-12
8.85466e-12
8.09979e-12
3.59029e-12
5.37768e-12
4.69161e-12
2.88222e-12
5.46114e-12
8.67212e-12
4.80795e-12
4.58371e-12
8.88502e-12
7.52517e-12
6.99711e-12
7.73133e-12
1.72509e-12
5.32357e-12
8.25807e-12
7.95458e-12
7.95844e-12
3.25e-12
1.4412e-12
6.61267e-12
5.95733e-12
6.62219e-12
4.42373e-12
2.61128e-12
3.39027e-12
2.14234e-12
7.56684e-12
4.43008e-12
1.22909e-12
6.21929e-12
6.52898e-12
3.46527e-12
4.7143e-12
2.81917e-12
1.56066e-12
4.90976e-12
1.75362e-12
8.58251e-12
1.95089e-12
5.3798e-12
1.64745e-12
8.69665e-12
8.64239e-12
3.46895e-12
5.88393e-12
5.72762e-12
6.13392e-12
9.03229e-12
3.14788e-12
2.89439e-12
5.45297e-12
8.97648e-12
5.11128e-12
5.51348e-12
7.416e-12
1.32362e-12
2.12411e-12
7.64373e-12
1.19212e-12
8.41124e-12
5.51507e-12
4.72991e-12
8.48747e-12
4.13436e-12
5.49507e-12
6.45845e-12
3.99627e-12
5.77073e-12
6.3361e-12
2.00862e-12
6.77913e-12
6.41996e-12
3.93432e-12
7.39695e-12
3.95626e-12
7.30859e-12
8.39615e-12
1.03872e-12
5.154e-12
1.56428e-12
7.59761e-12
1.48201e-12
3.94593e-12
8.90794e-12
4.15314e-12
7.3943e-12
7.46769e-12
3.48951e-12
7.47737e-12
2.23379e-12
5.83524e-12
1.01621e-12
6.9385e-12
4.92162e-12
7.40845e-12
4.89414e-12
3.21575e-12
7.97612e-12
5.60421e-12
1.53289e-12
4.93714e-12
7.22379e-12
2.56395e-12
4.86808e-12
2.88887e-12
5.23977e-12
2.70449e-12
1.35711e-12
5.32957e-12
2.39747e-12
4.29281e-12
1.84831e-12
5.25299e-12
1.80406e-12
3.38255e-12
2.90068e-12
9.12647e-12
3.29458e-12
2.91645e-12
1.71457e-12
5.76276e-12
4.47566e-12
4.05195e-12
7.81794e-12
3.39137e-12
7.00913e-12
6.12554e-12
4.55166e-12
7.30085e-12
4.55929e-12
4.56412e-12
4.00171e-12
2.23724e-12
8.86863e-12
8.69283e-12
7.55537e-12
6.15414e-12
1.24456e-12
6.47558e-12
2.03785e-12
3.43028e-12
3.99249e-12
3.2635e-12
1.56578e-12
2.22708e-12
2.30729e-12
8.8815e-12
4.07979e-12
1.36315e-12
7.20848e-12
3.46683e-12
2.66887e-12
9.24566e-12
8.49496e-12
7.36409e-12
6.44848e-12
1.27572e-12
7.82539e-12
7.39137e-12
4.79169e-12
5.43925e-12
1.86498e-12
2.17544e-12
5.24435e-12
2.7644e-12
8.69311e-12
4.84981e-12
2.05898e-12
7.40548e-12
2.73973e-12
1.56823e-12
1.74725e-12
2.31226e-12
3.95568e-12
1.7463e-12
2.15201e-12
8.81637e-12
5.8179e-12
8.0434e-12
6.21305e-12
3.68542e-12
7.09898e-12
5.36235e-12
7.17342e-12
2.33934e-12
6.75251e-12
4.55082e-12
7.1036e-12
7.3386e-12
4.30379e-12
8.76719e-12
2.6617e-12
1.0077e-12
8.77693e-12
3.43157e-12
2.35241e-12
1.1439e-12
4.76393e-12
7.77855e-12
4.05647e-12
6.09389e-12
1.23481e-12
3.93972e-12
1.60428e-12
6.80435e-12
1.04755e-12
4.82775e-12
9.07274e-12
3.76721e-12
4.93383e-12
1.83161e-12
5.19602e-12
8.43294e-12
5.46083e-12
3.32129e-12
3.93979e-12
8.52253e-12
2.983e-12
1.14206e-12
9.11005e-12
4.57753e-12
3.8696e-12
5.82199e-12
2.01041e-12
8.97737e-12
3.59315e-12
9.00095e-12
2.78761e-12
3.044e-12
8.24776e-12
2.93037e-12
7.83575e-12
5.54137e-12
2.55806e-12
5.92159e-12
1.34724e-12
1.07429e-12
1.36056e-12
4.31905e-12
5.82061e-12
8.2792e-12
7.59093e-12
3.09479e-12
1.63588e-12
2.27462e-12
2.71231e-12
4.47106e-12
3.88146e-12
6.86102e-12
6.84093e-12
1.57216e-12
1.24853e-12
7.61832e-12
8.55847e-12
9.79452e-13
3.17516e-12
4.89401e-12
3.98405e-12
2.97224e-12
1.13601e-12
5.43791e-12
2.04145e-12
5.68994e-12
2.35985e-12
4.50229e-12
6.73246e-12
3.2572e-12
1.0246e-12
2.80007e-12
1.21035e-12
8.84902e-12
7.5565e-12
5.31885e-12
1.07927e-12
3.46785e-12
5.51449e-12
8.21461e-12
2.50607e-12
1.6468e-12
1.31454e-12
4.69462e-12
1.10344e-12
1.50709e-12
7.80759e-12
6.32302e-12
7.47831e-12
6.91007e-12
2.95526e-12
1.31578e-12
3.31909e-12
8.25866e-12
1.55862e-12
6.52641e-12
2.52522e-12
5.35854e-12
8.58682e-12
4.95979e-12
8.10581e-12
8.03607e-12
2.11831e-12
5.51098e-12
4.89154e-12
2.79006e-12
4.66941e-12
5.00315e-12
3.75959e-12
1.0154e-12
5.21622e-12
6.63483e-12
1.40919e-12
2.27312e-12
6.05917e-12
3.64063e-12
8.47377e-12
7.62656e-12
2.78004e-12
2.63377e-12
6.69652e-12
2.26159e-12
5.25765e-12
9.29903e-12
2.16409e-12
1.34862e-12
8.54608e-12
6.99169e-12
3.56537e-12
4.26427e-12
1.62343e-12
3.91895e-12
9.48572e-13
6.22437e-12
2.6343e-12
6.22844e-12
3.65948e-12
1.34031e-12
7.05967e-12
7.36327e-12
4.37733e-12
6.89867e-12
5.89214e-12
9.14252e-12
3.51081e-12
3.59437e-12
2.85587e-12
6.62795e-12
7.52968e-12
5.27712e-12
6.14514e-12
1.32629e-12
4.714e-12
9.12939e-12
3.98188e-12
5.62711e-12
4.42006e-12
9.11275e-12
2.65787e-12
9.33931e-12
6.51683e-12
7.78479e-12
4.81596e-12
8.44663e-12
5.45708e-12
5.82378e-12
8.70204e-12
3.59768e-12
7.08313e-12
7.7523e-12
5.00133e-12
5.06488e-12
8.05833e-12
5.63976e-12
3.2232e-12
5.05784e-12
3.27366e-12
2.8468e-12
6.41154e-12
8.73279e-12
2.63602e-12
8.38356e-12
4.88073e-12
7.07333e-12
3.50229e-12
5.077e-12
2.66308e-12
1.68969e-12
2.34173e-12
5.19535e-12
7.60294e-12
8.58447e-12
2.79717e-12
7.18459e-12
3.12101e-12
5.71321e-12
2.06035e-12
4.08786e-12
1.64096e-12
5.21844e-12
6.81468e-12
4.80603e-12
3.99638e-12
7.84342e-12
1.32757e-12
4.22102e-12
4.81911e-12
7.16429e-12
8.63553e-12
3.28685e-12
7.85832e-12
6.49243e-12
1.03543e-12
7.16109e-12
6.04556e-12
6.69296e-12
5.8803e-12
5.79199e-12
3.99421e-12
9.0506e-12
9.28954e-12
4.21517e-12
8.01408e-12
9.24892e-12
5.89209e-12
6.61608e-12
1.66973e-12
9.32767e-12
7.53457e-12
9.35233e-12
6.47022e-12
1.25664e-12
7.0235e-12
6.76146e-12
6.09056e-12
1.83855e-12
3.31459e-12
7.50678e-12
8.47081e-12
5.25967e-12
6.99489e-12
1.59801e-12
6.14547e-12
8.02782e-12
6.82821e-12
5.6358e-12
8.22566e-12
7.24542e-12
3.17809e-12
9.39805e-12
5.79377e-12
6.34644e-12
5.08286e-12
8.46411e-12
8.33836e-12
8.1123e-12
6.41974e-12
5.894e-12
3.32219e-12
9.32939e-12
7.70513e-12
5.18384e-12
7.47379e-12
1.99141e-12
8.73181e-12
1.31932e-12
2.874e-12
8.06743e-12
3.52514e-12
5.03736e-12
6.43945e-12
2.15776e-12
3.52705e-12
8.44335e-12
8.44268e-12
5.29873e-12
3.19956e-12
8.38771e-12
5.15294e-12
3.7609e-12
8.50913e-12
2.66993e-12
7.87386e-12
8.03657e-12
5.36285e-12
2.30999e-12
8.96835e-12
1.44294e-12
8.43979e-12
5.79895e-12
4.14504e-12
6.36206e-12
2.02125e-12
4.38071e-12
3.95523e-12
2.21878e-12
8.18576e-12
1.80298e-12
9.0034e-12
2.35124e-12
4.65736e-12
2.29712e-12
8.37864e-12
4.98769e-12
4.31684e-12
3.27048e-12
1.37688e-12
2.11353e-12
7.52728e-12
2.44633e-12
5.87589e-12
8.79193e-12
1.85084e-12
4.76937e-12
2.2597e-12
3.51362e-12
7.40449e-12
6.24376e-12
6.95587e-12
2.57668e-12
1.51893e-12
8.38189e-12
3.64592e-12
6.0539e-12
9.02108e-12
4.4576e-12
2.59724e-12
2.3446e-12
6.22587e-12
1.41624e-12
3.71956e-12
9.23428e-12
7.46771e-12
2.71095e-12
5.89149e-12
4.66061e-12
6.13067e-12
3.64696e-12
1.88667e-12
3.5881e-12
9.34871e-12
2.34245e-12
4.8563e-12
6.31648e-12
1.25376e-12
3.0827e-12
8.302e-12
2.12128e-12
1.09288e-12
6.77498e-12
8.30932e-12
3.9476e-12
4.29692e-12
8.24023e-12
8.8269e-12
4.75342e-12
9.18843e-12
6.84455e-12
7.31554e-12
5.82797e-12
2.07877e-12
7.77313e-12
1.8255e-12
3.77843e-12
5.71452e-12
6.2071e-12
4.81553e-12
7.81676e-12
3.04029e-12
4.5166e-12
7.75547e-12
5.57712e-12
3.03407e-12
1.03113e-12
3.02895e-12
3.0539e-12
6.14936e-12
3.15596e-12
5.37537e-12
4.15696e-12
1.24532e-12
8.07691e-12
4.74672e-12
9.20103e-12
1.426e-12
2.31974e-12
2.48475e-12
5.51934e-12
3.24703e-12
5.11305e-12
7.14916e-12
2.50303e-12
8.7291e-12
6.52413e-12
6.77804e-12
2.36201e-12
6.74148e-12
6.03126e-12
6.48097e-12
5.31969e-12
1.52784e-12
4.94866e-12
5.04093e-12
6.16742e-12
1.7921e-12
1.17916e-12
1.51501e-12
4.11997e-12
7.47818e-12
4.38433e-12
8.84972e-12
5.44645e-12
4.71663e-12
3.72181e-12
3.85079e-12
1.34155e-12
4.73522e-12
8.58134e-12
8.39689e-12
7.81761e-12
9.06353e-12
3.53342e-12
8.79314e-12
1.32009e-12
3.98672e-12
1.58311e-12
8.76911e-12
3.79968e-12
7.63169e-12
7.27758e-12
4.88093e-12
1.63648e-12
2.6317e-12
1.58439e-12
8.49024e-12
7.03942e-12
4.72743e-12
5.81676e-12
2.64441e-12
7.03558e-12
8.10853e-12
5.74997e-12
6.0705e-12
8.55631e-12
8.49746e-12
6.01921e-12
7.57285e-12
7.60933e-12
9.23722e-12
6.74832e-12
8.72275e-12
1.52709e-12
5.43614e-12
5.88148e-12
4.21091e-12
3.15026e-12
4.74121e-12
5.57262e-12
8.09651e-12
7.84163e-12
3.1503e-12
9.24819e-12
8.79137e-12
3.77979e-12
6.9006e-12
6.43168e-12
2.70637e-12
7.23823e-12
9.21149e-12
4.45601e-12
1.71458e-12
3.15058e-12
2.87611e-12
7.97399e-12
5.39685e-12
1.21664e-12
7.37673e-12
4.52174e-12
2.4375e-12
6.87248e-12
5.99568e-12
3.27144e-12
1.46317e-12
6.90332e-12
3.97032e-12
7.05859e-12
5.39821e-12
1.74321e-12
3.9556e-12
8.63846e-12
2.45152e-12
2.56794e-12
2.64306e-12
1.97342e-12
6.26702e-12
8.97662e-12
1.27921e-12
4.86741e-12
1.52969e-12
5.96392e-12
6.00399e-12
3.90484e-12
3.15645e-12
3.59072e-12
8.59554e-12
4.3662e-12
6.91587e-12
5.59756e-12
4.74817e-12
4.85695e-12
1.81391e-12
8.97727e-12
2.0017e-12
2.05007e-12
2.29722e-12
8.30089e-12
9.29088e-12
8.88267e-12
4.17202e-12
5.01981e-12
6.60725e-12
7.81627e-12
8.70661e-12
1.6816e-12
2.02722e-12
7.16202e-12
9.08589e-12
5.73793e-12
8.95344e-12
8.18958e-12
6.8916e-12
2.46379e-12
6.17957e-12
5.66134e-12
1.46883e-12
4.65495e-12
8.2153e-12
1.02991e-12
1.66045e-12
4.56721e-12
5.90995e-12
8.21181e-12
6.13945e-12
5.44426e-12
8.01636e-12
7.23476e-12
3.71376e-12
3.0101e-12
6.47746e-12
6.0903e-12
1.51585e-12
4.21062e-12
5.47781e-12
8.49394e-12
8.88674e-12
2.78513e-12
5.6931e-12
2.07494e-12
6.93659e-12
2.23619e-12
9.61544e-13
1.05847e-12
2.78099e-12
8.595e-12
1.47528e-12
3.41285e-12
2.16692e-12
6.45207e-12
2.15576e-12
3.57079e-12
9.01745e-12
8.70209e-12
8.11871e-12
5.3838e-12
1.75871e-12
2.17791e-12
4.45178e-12
5.38042e-12
3.32603e-12
3.15837e-12
4.80603e-12
4.29019e-12
7.11544e-12
9.90824e-13
6.13207e-12
1.20392e-12
1.47053e-12
3.1194e-12
5.94738e-12
1.68623e-12
8.22442e-12
1.55305e-12
3.72149e-12
7.79742e-12
8.83444e-12
3.02956e-12
5.63154e-12
5.68166e-12
4.97752e-12
4.74557e-12
8.85741e-12
4.24002e-12
1.33657e-12
3.10329e-12
4.59939e-12
3.42853e-12
5.5217e-12
7.37497e-12
8.61146e-12
7.46834e-12
5.71878e-12
2.39036e-12
4.54113e-12
7.27821e-12
1.21885e-12
5.01855e-12
5.3538e-12
5.48736e-12
2.32047e-12
6.33814e-12
2.93825e-12
2.26661e-12
4.22769e-12
5.19248e-12
2.34125e-12
5.65169e-12
7.79638e-12
2.09348e-12
7.49948e-12
9.24983e-12
8.91393e-12
3.80989e-12
6.80352e-12
6.54189e-12
7.94469e-12
8.10136e-12
5.63569e-12
6.63566e-12
5.15801e-12
1.00749e-12
6.96407e-12
5.24171e-12
2.55196e-12
8.22484e-12
7.82419e-12
7.04156e-12
1.4504e-12
1.03034e-12
9.25445e-12
6.0863e-12
9.5e-13
4.9247e-12
5.49982e-12
5.68882e-12
8.74105e-12
6.44662e-12
1.47751e-12
3.52052e-12
5.09993e-12
4.42169e-12
3.62914e-12
5.07087e-12
1.47057e-12
1.89849e-12
8.96716e-12
7.30095e-12
1.7979e-12
5.88857e-12
8.61773e-12
6.38227e-12
6.56203e-12
2.84353e-12
1.62905e-12
1.70976e-12
9.72519e-13
9.03984e-12
1.48814e-12
7.41133e-12
5.55709e-12
5.1684e-12
1.68066e-12
1.0501e-12
1.48882e-12
1.01884e-12
9.164e-12
2.19918e-12
6.0134e-12
4.42411e-12
7.18219e-12
6.32513e-12
8.73121e-12
6.64349e-12
2.87241e-12
4.63018e-12
5.26345e-12
9.16075e-12
9.61651e-13
1.48854e-12
8.1015e-12
8.93875e-12
7.42039e-12
6.44881e-12
7.83565e-12
9.59431e-13
3.0793e-12
3.73407e-12
1.79151e-12
6.39779e-12
7.92213e-12
3.94537e-12
2.77098e-12
4.9627e-12
2.83117e-12
4.04789e-12
7.19193e-12
4.83788e-12
1.54319e-12
3.77536e-12
6.10115e-12
6.8825e-12
8.29857e-12
9.86622e-13
3.46706e-12
7.27775e-12
8.24365e-12
8.52608e-12
4.31718e-12
4.64756e-12
4.21422e-12
2.84419e-12
2.18937e-12
9.6189e-13
7.42221e-12
9.22722e-12
7.92824e-12
2.51132e-12
7.3908e-12
2.54069e-12
3.81832e-12
6.08871e-12
6.77567e-12
4.2233e-12
3.2191e-12
8.92843e-12
3.51562e-12
5.88512e-12
4.53174e-12
3.83804e-12
4.46824e-12
7.3767e-12
8.23717e-12
5.30326e-12
3.40481e-12
2.75966e-12
9.04587e-12
9.3814e-12
5.59123e-12
7.26285e-12
7.16704e-12
3.4772e-12
8.20491e-12
3.83497e-12
7.65143e-12
4.94963e-12
3.11332e-12
1.74904e-12
1.83451e-12
3.16435e-12
4.294e-12
7.20444e-12
3.6297e-12
5.13239e-12
8.17712e-12
9.32792e-12
1.342e-12
1.78633e-12
2.84964e-12
3.97155e-12
2.14098e-12
7.5795e-12
4.09106e-12
1.46318e-12
7.06531e-12
3.89871e-12
5.07525e-12
6.92149e-12
5.53248e-12
3.05323e-12
7.30887e-12
4.55422e-12
8.90153e-12
9.12519e-12
1.21237e-12
4.98879e-12
1.62819e-12
4.50878e-12
2.21342e-12
5.65188e-12
6.56082e-12
8.97173e-12
3.79079e-12
5.24115e-12
8.34343e-12
3.06515e-12
6.42327e-12
2.33355e-12
3.92337e-12
7.63404e-12
1.3014e-12
6.3013e-12
7.40482e-12
7.84187e-12
4.77605e-12
6.96019e-12
2.30649e-12
6.16286e-12
8.31175e-12
8.40243e-12
4.57505e-12
3.25581e-12
8.11659e-12
3.07978e-12
1.65596e-12
4.68525e-12
5.29708e-12
1.48488e-12
4.80248e-12
3.38821e-12
5.25737e-12
4.37464e-12
9.10036e-12
5.39658e-12
2.41202e-12
4.03919e-12
3.94298e-12
4.34327e-12
9.04838e-12
9.20619e-12
8.9095e-12
6.90955e-12
1.18214e-12
4.39613e-12
8.8172e-12
7.93713e-12
6.52156e-12
3.13585e-12
5.21311e-12
6.6718e-12
6.09771e-12
5.14253e-12
1.04219e-12
4.9231e-12
3.19072e-12
6.81259e-12
5.52914e-12
7.59727e-12
5.80847e-12
6.8567e-12
8.01985e-12
5.41918e-12
8.98939e-12
3.58395e-12
7.28943e-12
5.32528e-12
1.61028e-12
3.48132e-12
6.22605e-12
6.41632e-12
1.54764e-12
4.29626e-12
1.42909e-12
5.26811e-12
2.50045e-12
7.23486e-12
4.45501e-12
3.61473e-12
6.39221e-12
6.42601e-12
7.07349e-12
8.5159e-12
4.1629e-12
4.93054e-12
8.10765e-12
8.25128e-12
2.78426e-12
6.23105e-12
4.42087e-12
5.94355e-12
5.57924e-12
3.45984e-12
7.64853e-12
5.2949e-12
3.17197e-12
6.39932e-12
6.53146e-12
4.61576e-12
4.61283e-12
2.4561e-12
6.44269e-12
8.66642e-12
1.37489e-12
7.15126e-12
3.71588e-12
8.61854e-12
1.65481e-12
1.40973e-12
5.38918e-12
8.87133e-12
9.14604e-12
2.92265e-12
8.13873e-12
6.49764e-12
6.40028e-12
8.17633e-12
8.81674e-12
4.64627e-12
1.38595e-12
5.5718e-12
2.64991e-12
8.159e-12
7.04256e-12
8.81636e-12
5.04492e-12
8.75193e-12
8.45858e-12
1.69973e-12
9.119e-12
2.07348e-12
4.54674e-12
8.20568e-12
4.78311e-12
2.0305e-12
3.55239e-12
4.92299e-12
6.80403e-12
6.34825e-12
3.44073e-12
3.88703e-12
2.04866e-12
5.29535e-12
6.08146e-12
2.68041e-12
9.33713e-12
2.14282e-12
7.02075e-12
6.41672e-12
7.6983e-12
6.13211e-12
7.0835e-12
5.47741e-12
6.41829e-12
3.66964e-12
4.97036e-12
1.16182e-12
4.54033e-12
9.0433e-12
8.05286e-12
8.83317e-12
3.55521e-12
6.67267e-12
6.09262e-12
2.66948e-12
2.34201e-12
3.47485e-12
5.48594e-12
3.81643e-12
5.03655e-12
8.28641e-12
7.71562e-12
5.56441e-12
2.47642e-12
6.86917e-12
7.56622e-12
4.66443e-12
7.92493e-12
4.2497e-12
8.7952e-12
1.37056e-12
5.08785e-12
8.32704e-12
8.16309e-12
7.67683e-12
5.21004e-12
7.88352e-12
5.05396e-12
8.1117e-12
7.29229e-12
4.55786e-12
2.0002e-12
4.95557e-12
1.60951e-12
8.4538e-12
1.38802e-12
8.03833e-12
4.04069e-12
8.7428e-12
7.79907e-12
8.37936e-12
2.21056e-12
8.20512e-12
7.70062e-12
6.11363e-12
8.10483e-12
7.79413e-12
1.8941e-12
4.41777e-12
8.41691e-12
9.03354e-12
4.95146e-12
3.20653e-12
8.02313e-12
8.95645e-12
2.56727e-12
1.8299e-12
1.75443e-12
4.63614e-12
1.87027e-12
5.77297e-12
3.69343e-12
1.82069e-12
6.32629e-12
6.66792e-12
5.93137e-12
4.34957e-12
9.12306e-12
2.64414e-12
5.2122e-12
3.27854e-12
7.94733e-12
3.00033e-12
1.34244e-12
2.13384e-12
1.6354e-12
3.77876e-12
4.5051e-12
6.90688e-12
2.03459e-12
7.54661e-12
3.15279e-12
1.97575e-12
9.23116e-12
5.16326e-12
2.83683e-12
3.32837e-12
9.24765e-12
7.55859e-12
9.95898e-13
1.01845e-12
5.29279e-12
4.30566e-12
2.62925e-12
4.74722e-12
1.922e-12
2.44001e-12
6.60597e-12
6.77237e-12
2.99165e-12
3.83439e-12
7.78891e-12
7.76376e-12
5.60128e-12
3.39964e-12
9.24256e-12
4.51937e-12
6.86251e-12
8.28318e-12
9.16539e-12
2.62702e-12
1.87302e-12
5.06108e-12
5.69494e-12
9.44984e-13
5.72096e-12
2.07172e-12
3.39244e-12
9.23837e-12
8.44819e-12
8.91855e-12
1.43184e-12
6.01589e-12
1.538e-12
3.94275e-12
7.05191e-12
1.58742e-12
4.57624e-12
4.14732e-12
4.45877e-12
6.17772e-12
6.37835e-12
3.99357e-12
8.45583e-12
3.17474e-12
1.48308e-12
2.14274e-12
3.27358e-12
5.77986e-12
3.05062e-12
2.49462e-12
8.96915e-12
8.99685e-12
1.84626e-12
6.26881e-12
3.20385e-12
1.57977e-12
3.59726e-12
6.52079e-12
1.67575e-12
5.74021e-12
5.29938e-12
3.34047e-12
4.47977e-12
5.19177e-12
5.61593e-12
4.28888e-12
6.92803e-12
8.31171e-12
6.74885e-12
8.88563e-12
1.00873e-12
4.01724e-12
6.50265e-12
4.77468e-12
7.44655e-12
9.19137e-12
3.80659e-12
8.62598e-12
5.9256e-12
5.07734e-12
1.13771e-12
3.74981e-12
6.29933e-12
6.63709e-12
6.25458e-12
4.86092e-12
2.26209e-12
1.34534e-12
5.18059e-12
6.53827e-12
6.95806e-12
6.75642e-12
5.79304e-12
6.22105e-12
2.71139e-12
2.26261e-12
1.17452e-12
2.42654e-12
9.18745e-12
3.18429e-12
1.8704e-12
6.95724e-12
5.46831e-12
7.57427e-12
4.49002e-12
7.48033e-12
1.82602e-12
7.36992e-12
5.22049e-12
3.59351e-12
8.66296e-12
4.53535e-12
7.38812e-12
6.25613e-12
7.19418e-12
7.90259e-12
3.3409e-12
9.17982e-12
4.59453e-12
1.92726e-12
2.80028e-12
2.77121e-12
4.19368e-12
8.8239e-12
3.39063e-12
3.35261e-12
5.10538e-12
1.50427e-12
5.99056e-12
7.67803e-12
9.74716e-13
1.23221e-12
6.72156e-12
6.84189e-12
8.18962e-12
4.49747e-12
2.44643e-12
8.03004e-12
1.17534e-12
1.78847e-12
8.1525e-12
6.88613e-12
5.01306e-12
4.27549e-12
8.44212e-12
4.72349e-12
3.7508e-12
5.81682e-12
2.91622e-12
7.1982e-12
5.53961e-12
7.12796e-12
6.03528e-12
9.35619e-12
2.8153e-12
7.4943e-12
8.56761e-12
2.76197e-12
5.97966e-12
3.99679e-12
8.68346e-12
7.79508e-12
8.84299e-12
5.17031e-12
3.41882e-12
8.60252e-12
4.04991e-12
4.38682e-12
2.16069e-12
8.4326e-12
6.56915e-12
2.49393e-12
5.88106e-12
4.76338e-12
8.86873e-12
4.50871e-12
4.65004e-12
7.71975e-12
1.07306e-12
7.83344e-12
8.94851e-12
4.31845e-12
8.6249e-12
1.74702e-12
5.557e-12
4.7413e-12
6.07989e-12
5.53295e-12
6.79493e-12
7.43248e-12
4.0875e-12
3.97405e-12
5.67887e-12
9.21747e-12
4.90745e-12
2.06861e-12
9.13302e-12
2.53596e-12
5.95388e-12
7.45099e-12
4.4869e-12
8.21771e-12
5.10431e-12
5.01378e-12
2.64624e-12
6.3786e-12
1.99806e-12
7.57878e-12
3.65798e-12
3.21153e-12
2.33513e-12
8.48493e-12
9.12619e-12
1.66478e-12
3.10941e-12
3.99201e-12
6.38466e-12
3.29176e-12
3.76637e-12
5.11783e-12
3.22128e-12
5.05127e-12
5.53496e-12
9.83091e-13
3.83842e-12
3.38618e-12
2.30299e-12
2.64116e-12
6.56757e-12
8.2291e-12
7.9929e-12
3.95379e-12
5.21357e-12
4.34724e-12
8.16855e-12
9.11155e-12
7.12337e-12
6.13953e-12
4.29071e-12
3.22162e-12
5.66772e-12
7.05219e-12
9.20634e-12
6.78561e-12
3.55679e-12
2.41006e-12
1.99126e-12
8.72898e-12
8.69233e-12
8.76871e-12
1.47091e-12
1.91016e-12
1.05377e-12
8.87311e-12
9.31509e-12
9.24771e-12
5.88906e-12
1.7158e-12
3.63494e-12
2.17668e-12
6.19175e-12
8.97569e-12
6.53173e-12
5.17187e-12
3.85713e-12
5.20274e-12
6.28841e-12
4.29511e-12
8.76218e-12
8.09369e-12
5.43109e-12
8.05075e-12
1.76589e-12
7.21597e-12
2.55946e-12
4.34163e-12
2.67934e-12
3.63212e-12
1.51954e-12
3.92763e-12
9.11074e-12
9.74223e-13
6.87649e-12
3.80795e-12
3.73327e-12
6.38829e-12
8.41946e-12
2.13329e-12
8.50219e-12
7.09242e-12
4.66159e-12
8.82818e-12
7.83327e-12
4.04699e-12
1.72761e-12
4.44373e-12
7.41324e-12
2.61693e-12
6.23896e-12
3.77061e-12
8.15741e-12
8.43154e-12
2.47465e-12
4.98227e-12
2.70711e-12
1.38833e-12
5.64714e-12
2.32887e-12
2.3333e-12
4.1425e-12
8.90913e-12
4.37249e-12
4.49415e-12
7.94988e-12
1.57977e-12
3.59691e-12
1.22475e-12
5.01864e-12
4.31421e-12
6.69431e-12
2.41899e-12
4.93355e-12
8.47326e-12
7.80502e-12
6.63123e-12
5.2791e-12
9.06146e-12
5.30843e-12
6.378e-12
5.61029e-12
1.88026e-12
8.13259e-12
3.17758e-12
9.00024e-12
2.22868e-12
6.66757e-12
3.78329e-12
6.27037e-12
2.9142e-12
9.91845e-13
7.31312e-12
8.75171e-12
9.16182e-12
5.99533e-12
6.77986e-12
8.33825e-12
7.23226e-12
2.34497e-12
7.21678e-12
4.37521e-12
7.10629e-12
8.28362e-12
5.51754e-12
7.69235e-12
4.88842e-12
8.96802e-12
6.76846e-12
7.10487e-12
4.45056e-12
2.56668e-12
6.58991e-12
4.9829e-12
8.34367e-12
8.04252e-12
5.86708e-12
1.56155e-12
6.45203e-12
6.35444e-12
7.01133e-12
4.19008e-12
6.17543e-12
4.1164e-12
7.87375e-12
3.89942e-12
4.72816e-12
5.61257e-12
3.83289e-12
7.45165e-12
5.77395e-12
3.19247e-12
8.9466e-12
1.00717e-12
6.19041e-12
3.35605e-12
1.26258e-12
6.44967e-12
7.99153e-12
6.45777e-12
8.52153e-12
3.47955e-12
1.72116e-12
5.51783e-12
8.0255e-12
6.33292e-12
2.12087e-12
3.6778e-12
7.57971e-12
9.37386e-12
9.34476e-12
8.82862e-12
8.95638e-12
4.71639e-12
4.27007e-12
5.06663e-12
1.41418e-12
2.90355e-12
8.14948e-12
6.17177e-12
6.42029e-12
5.51855e-12
5.84038e-12
3.24364e-12
5.11374e-12
1.03091e-12
4.8555e-12
5.44487e-12
7.92691e-12
1.74647e-12
4.19831e-12
3.2379e-12
2.97154e-12
9.14575e-12
4.52648e-12
3.58296e-12
4.01761e-12
6.26711e-12
5.66187e-12
2.39697e-12
6.78079e-12
8.07769e-12
2.33806e-12
6.20585e-12
9.01733e-12
2.22143e-12
6.5794e-12
3.97141e-12
8.18141e-12
2.69191e-12
7.82727e-12
8.74492e-12
4.04516e-12
5.29961e-12
1.32166e-12
1.0406e-12
8.4896e-12
4.63648e-12
8.95299e-12
5.46806e-12
5.61879e-12
5.3615e-12
4.06916e-12
5.45368e-12
8.16794e-12
8.39546e-12
9.09078e-12
6.06106e-12
7.26078e-12
7.56554e-12
3.05678e-12
8.16047e-12
8.94173e-12
5.51904e-12
8.79577e-12
5.33242e-12
2.97163e-12
4.2048e-12
3.57134e-12
5.06378e-12
8.30237e-12
3.3969e-12
7.19471e-12
9.36605e-12
5.28556e-12
9.0082e-12
2.61668e-12
4.46699e-12
4.10794e-12
9.07759e-12
8.57671e-12
6.04221e-12
4.58642e-12
6.27205e-12
4.99951e-12
4.41455e-12
2.83502e-12
7.05707e-12
5.98459e-12
6.08951e-12
4.193e-12
2.92783e-12
4.21882e-12
9.15407e-12
5.03119e-12
4.42497e-12
5.69741e-12
8.07912e-12
2.77692e-12
5.13304e-12
3.45604e-12
7.10817e-12
7.76114e-12
5.01004e-12
3.81493e-12
5.31295e-12
1.56336e-12
3.95554e-12
6.96388e-12
2.53684e-12
5.30449e-12
1.86167e-12
2.32998e-12
3.06098e-12
4.96523e-12
4.94249e-12
2.36943e-12
1.03466e-12
3.77024e-12
6.53123e-12
2.26146e-12
6.68955e-12
1.83868e-12
8.6499e-12
7.31345e-12
8.79723e-12
9.21611e-12
6.40167e-12
3.69723e-12
2.62237e-12
9.17046e-12
4.98012e-12
5.78016e-12
6.90321e-12
7.0674e-12
1.27765e-12
2.86386e-12
1.19992e-12
1.84544e-12
7.92397e-12
1.09234e-12
5.78821e-12
9.03216e-12
7.66345e-12
1.5891e-12
9.12096e-12
6.97006e-12
6.46033e-12
3.74904e-12
9.00682e-12
2.32445e-12
6.28806e-12
7.98659e-12
3.97755e-12
4.12968e-12
8.64106e-12
3.47707e-12
7.72116e-12
7.34328e-12
6.25845e-12
3.30576e-12
8.36892e-12
2.99573e-12
5.11313e-12
1.96454e-12
2.55481e-12
4.03138e-12
5.47052e-12
4.15078e-12
2.73157e-12
8.32659e-12
8.57355e-12
7.85452e-12
6.40463e-12
4.37175e-12
3.01344e-12
6.71239e-12
6.92058e-12
1.52103e-12
4.99501e-12
5.72122e-12
7.55025e-12
8.966e-12
2.95879e-12
9.04881e-12
4.11333e-12
3.08705e-12
2.95085e-12
4.77469e-12
1.92062e-12
4.59511e-12
1.41362e-12
5.68654e-12
6.58758e-12
1.92958e-12
1.13877e-12
5.42877e-12
4.13063e-12
3.33811e-12
4.25548e-12
4.26962e-12
5.41401e-12
1.89778e-12
2.25892e-12
2.19787e-12
4.03635e-12
4.3553e-12
1.86832e-12
3.60323e-12
3.62262e-12
9.70323e-13
4.35241e-12
4.52209e-12
7.97938e-12
1.79687e-12
1.59696e-12
2.70682e-12
8.03988e-12
5.60517e-12
8.12008e-12
8.16515e-12
1.90695e-12
4.0965e-12
3.23581e-12
5.08489e-12
3.56063e-12
8.50626e-12
5.39687e-12
9.24043e-12
7.75206e-12
8.10327e-12
7.64933e-12
8.64985e-12
5.85098e-12
6.78365e-12
6.60069e-12
8.72989e-12
4.18639e-12
2.57857e-12
1.5924e-12
7.34019e-12
5.71199e-12
9.10412e-12
6.36413e-12
4.64943e-12
5.78606e-12
6.2093e-12
5.11402e-12
9.38739e-12
8.84638e-12
5.24633e-12
6.98652e-12
3.2201e-12
5.60631e-12
6.32816e-12
5.50618e-12
5.78624e-12
7.89218e-12
8.62928e-12
5.84811e-12
5.01577e-12
7.29563e-12
2.7917e-12
3.73838e-12
3.62946e-12
6.29423e-12
1.07653e-12
9.37993e-12
5.59978e-12
2.39737e-12
2.3368e-12
2.87329e-12
2.26395e-12
8.343e-12
5.32547e-12
3.66714e-12
3.03747e-12
5.34816e-12
6.46597e-12
8.48033e-12
7.4352e-12
4.06113e-12
3.90106e-12
4.55689e-12
1.07787e-12
2.80813e-12
5.26697e-12
7.60911e-12
2.50529e-12
5.55771e-12
7.69273e-12
3.69881e-12
2.43462e-12
5.54187e-12
7.01047e-12
3.07317e-12
6.90758e-12
3.43771e-12
3.57729e-12
6.44038e-12
4.45145e-12
7.90733e-12
3.81376e-12
1.15437e-12
5.85868e-12
6.52827e-12
6.36671e-12
9.79232e-13
6.00761e-12
4.60862e-12
1.315e-12
6.82213e-12
5.39568e-12
3.92992e-12
6.34126e-12
7.92539e-12
8.52253e-12
6.39793e-12
8.88186e-12
7.88914e-12
2.24267e-12
1.88668e-12
5.43429e-12
7.45282e-12
7.45735e-12
2.32411e-12
8.05507e-12
6.25228e-12
8.16497e-12
8.1752e-12
9.07265e-12
2.24438e-12
1.33723e-12
5.34235e-12
6.81703e-12
1.16165e-12
4.44103e-12
1.48012e-12
7.94672e-12
5.34501e-12
8.84442e-12
1.98602e-12
6.66563e-12
3.07283e-12
4.75622e-12
7.20703e-12
4.15608e-12
6.52819e-12
5.94525e-12
3.39271e-12
6.1374e-12
5.37671e-12
1.55906e-12
8.44095e-12
8.22117e-12
7.92164e-12
2.26587e-12
9.26608e-12
6.83072e-12
5.68308e-12
2.4875e-12
8.8762e-12
7.04534e-12
2.71351e-12
1.89896e-12
3.97265e-12
3.23391e-12
8.62297e-12
5.15263e-12
9.14627e-12
9.2407e-12
3.64594e-12
1.23537e-12
9.69157e-13
4.20645e-12
3.62292e-12
3.81513e-12
2.91111e-12
4.86131e-12
7.14306e-12
3.99046e-12
8.58126e-12
6.02417e-12
1.87071e-12
2.38091e-12
1.42061e-12
2.49603e-12
4.70512e-12
2.45833e-12
7.64285e-12
2.02651e-12
4.48459e-12
6.62716e-12
7.6672e-12
8.74479e-12
6.30112e-12
7.61519e-12
3.54747e-12
1.76477e-12
8.3855e-12
8.62652e-12
5.94288e-12
8.27125e-12
6.49701e-12
8.40395e-12
2.96627e-12
8.80201e-12
5.7853e-12
1.95256e-12
6.19559e-12
3.83008e-12
8.46207e-12
8.77013e-12
8.79084e-12
2.78307e-12
6.71793e-12
7.05497e-12
3.52486e-12
4.29657e-12
3.15889e-12
4.74229e-12
5.51075e-12
1.65842e-12
1.41694e-12
5.08317e-12
5.41639e-12
2.88697e-12
3.95646e-12
6.51345e-12
1.25843e-12
6.36276e-12
9.17146e-12
3.7422e-12
4.17339e-12
9.25778e-12
1.17651e-12
6.60877e-12
6.23859e-12
1.33232e-12
6.25059e-12
6.48493e-12
3.10575e-12
6.47155e-12
3.94819e-12
8.9347e-12
3.27266e-12
8.57086e-12
5.8755e-12
6.83355e-12
9.38929e-12
9.14169e-12
1.61398e-12
3.22539e-12
1.07347e-12
7.73127e-12
8.82727e-12
5.50214e-12
6.73601e-12
2.53559e-12
8.96096e-12
9.3091e-12
2.97936e-12
8.83892e-12
9.33097e-12
1.59891e-12
5.36322e-12
9.33724e-12
7.82178e-12
5.45143e-12
4.63103e-12
1.87834e-12
8.74104e-12
5.34313e-12
2.63647e-12
3.19959e-12
3.09716e-12
8.87075e-12
2.97196e-12
2.89328e-12
9.07389e-12
3.32919e-12
2.85106e-12
8.37457e-12
4.34397e-12
2.65902e-12
4.37847e-12
1.89545e-12
6.60782e-12
7.26029e-12
1.98974e-12
2.47529e-12
9.05657e-12
3.42358e-12
4.02998e-12
2.01394e-12
6.25954e-12
1.93783e-12
1.15046e-12
4.58153e-12
1.71167e-12
6.05122e-12
5.51202e-12
7.04058e-12
9.1285e-12
9.05733e-12
1.10596e-12
5.83638e-12
9.14438e-12
5.59377e-12
4.79191e-12
3.71422e-12
6.66224e-12
8.62573e-12
3.96142e-12
9.31305e-12
3.42324e-12
2.96188e-12
4.38825e-12
2.62461e-12
8.11419e-12
4.3291e-12
5.78814e-12
9.1704e-12
2.47623e-12
7.06558e-12
7.01508e-12
4.6371e-12
2.24185e-12
2.86375e-12
3.70358e-12
9.10898e-12
8.98617e-12
1.11213e-12
6.78639e-12
5.82908e-12
4.0432e-12
5.511e-12
9.07771e-12
6.40015e-12
3.90672e-12
6.12687e-12
7.83753e-12
1.60748e-12
6.25682e-12
6.4007e-12
3.04998e-12
2.18202e-12
8.14482e-12
6.56654e-12
1.57379e-12
3.81016e-12
8.15594e-12
3.91626e-12
2.76847e-12
4.10581e-12
2.93157e-12
5.28708e-12
5.61624e-12
8.01374e-12
3.30024e-12
4.5857e-12
9.16657e-12
5.21337e-12
7.24832e-12
1.39571e-12
1.88462e-12
7.76913e-12
7.63335e-12
4.70116e-12
9.03394e-12
8.82569e-12
4.62376e-12
1.73711e-12
8.56622e-12
3.58107e-12
2.69156e-12
3.42568e-12
6.67868e-12
7.35596e-12
4.23358e-12
2.70926e-12
4.57306e-12
4.01495e-12
8.82609e-12
3.70188e-12
2.99334e-12
6.36542e-12
3.5645e-12
3.20505e-12
6.68403e-12
7.06491e-12
9.61516e-13
4.38892e-12
3.25608e-12
5.02187e-12
1.27787e-12
4.97376e-12
7.1614e-12
5.89028e-12
1.39047e-12
1.69625e-12
6.92368e-12
8.03413e-12
1.3818e-12
4.4806e-12
2.13347e-12
4.93403e-12
3.75125e-12
7.86678e-12
7.7592e-12
5.83971e-12
7.2189e-12
8.49225e-12
8.01568e-12
5.3941e-12
5.32776e-12
6.98904e-12
4.60722e-12
5.40672e-12
4.801e-12
8.20486e-12
8.06144e-12
4.47909e-12
4.47229e-12
9.60883e-13
1.11146e-12
2.41612e-12
7.60477e-12
1.36661e-12
8.92593e-12
5.45461e-12
2.06986e-12
1.50723e-12
4.39159e-12
9.08431e-12
3.29389e-12
6.8617e-12
6.29062e-12
8.48684e-12
1.53452e-12
5.66787e-12
6.65235e-12
9.15549e-12
6.75634e-12
1.39409e-12
9.37755e-12
8.45284e-12
4.04696e-12
4.53054e-12
2.57882e-12
2.78712e-12
5.49198e-12
5.71961e-12
5.79126e-12
5.53915e-12
6.59032e-12
4.16842e-12
9.20487e-12
3.05291e-12
7.80271e-12
3.73607e-12
2.7555e-12
9.15647e-12
3.07386e-12
9.19199e-12
4.9963e-12
1.1654e-12
4.52118e-12
7.2129e-12
2.42779e-12
3.83297e-12
8.07846e-12
6.57138e-12
5.31987e-12
6.0761e-12
7.50369e-12
9.03226e-12
8.60552e-12
2.3128e-12
9.18112e-12
8.13899e-12
6.58105e-12
6.80812e-12
9.37131e-12
2.51023e-12
1.44997e-12
6.33336e-12
8.95301e-12
8.41001e-12
3.08968e-12
8.99941e-12
1.09974e-12
7.82386e-12
2.47095e-12
1.79289e-12
2.48412e-12
6.05581e-12
8.19467e-12
2.40168e-12
7.96706e-12
3.76255e-12
6.08574e-12
8.22287e-12
2.88191e-12
7.83204e-12
6.96987e-12
4.0932e-12
8.7298e-12
7.16691e-12
3.68324e-12
1.35439e-12
5.36987e-12
8.10851e-12
8.49585e-12
5.75733e-12
6.50014e-12
6.4801e-12
2.39889e-12
8.57079e-12
8.34032e-12
7.14462e-12
7.04906e-12
3.28378e-12
4.38881e-12
2.63918e-12
7.57724e-12
8.66708e-12
7.66541e-12
2.48056e-12
2.52048e-12
6.25749e-12
1.05532e-12
1.72893e-12
6.18848e-12
4.55932e-12
2.48501e-12
6.32685e-12
3.38934e-12
8.23879e-12
6.07209e-12
4.84283e-12
5.79109e-12
7.77602e-12
9.0385e-12
3.13649e-12
4.33538e-12
8.42829e-12
3.21293e-12
6.63158e-12
4.13444e-12
2.05917e-12
1.59758e-12
6.89417e-12
5.18866e-12
8.02653e-12
6.46373e-12
1.30517e-12
2.26964e-12
8.75333e-12
6.31435e-12
5.85769e-12
2.71158e-12
1.16586e-12
8.86574e-12
4.82287e-12
8.62711e-12
9.68575e-13
5.91102e-12
7.21355e-12
4.41782e-12
5.00498e-12
7.10942e-12
1.85738e-12
7.11905e-12
4.82835e-12
8.37765e-12
6.64384e-12
1.42724e-12
2.26081e-12
6.19591e-12
5.78541e-12
2.46966e-12
1.9142e-12
8.25392e-12
3.31713e-12
9.05161e-12
7.79403e-12
1.24541e-12
4.32811e-12
9.66321e-13
2.46026e-12
4.8495e-12
2.0205e-12
1.11164e-12
1.32211e-12
8.56838e-12
7.54026e-12