/*--------------------------------*- C++ -*----------------------------------*\
| =========                 |                                                 |
| \\      /  F ield         | foam-extend: Open Source CFD                    |
|  \\    /   O peration     | Version:     4.0                                |
|   \\  /    A nd           | Web:         http://www.foam-extend.org         |
|    \\/     M anipulation  |                                                 |
\*---------------------------------------------------------------------------*/
FoamFile
{
    version     2.0;
    format      ascii;
    class       volScalarField;
    location    "0";
    object      p;
}
// * * * * * * * * * * * * * * * * * * * * * * * * * * * * * * * * * * * * * //

dimensions      [1 -1 -2 0 0 0 0];

internalField   nonuniform List<scalar> 
55000
(
1.1089e+08
1.1069e+08
1.1049e+08
1.1029e+08
1.1009e+08
1.0989e+08
1.0969e+08
1.0949e+08
1.0929e+08
1.0909e+08
1.0889e+08
1.0869e+08
1.0849e+08
1.0829e+08
1.0809e+08
1.0789e+08
1.0769e+08
1.0749e+08
1.0729e+08
1.0709e+08
1.0689e+08
1.0669e+08
1.0649e+08
1.0629e+08
1.0609e+08
1.0589e+08
1.0569e+08
1.0549e+08
1.0529e+08
1.0509e+08
1.0489e+08
1.0469e+08
1.0449e+08
1.0429e+08
1.0409e+08
1.0389e+08
1.0369e+08
1.0349e+08
1.0329e+08
1.0309e+08
1.0289e+08
1.0269e+08
1.0249e+08
1.0229e+08
1.0209e+08
1.0189e+08
1.0169e+08
1.0149e+08
1.0129e+08
1.0109e+08
1.0089e+08
1.0069e+08
1.0049e+08
1.0029e+08
1.0009e+08
9.989e+07
9.969e+07
9.949e+07
9.929e+07
9.909e+07
9.889e+07
9.869e+07
9.849e+07
9.829e+07
9.809e+07
9.789e+07
9.769e+07
9.749e+07
9.729e+07
9.709e+07
9.689e+07
9.669e+07
9.649e+07
9.629e+07
9.609e+07
9.589e+07
9.569e+07
9.549e+07
9.529e+07
9.509e+07
9.489e+07
9.469e+07
9.449e+07
9.429e+07
9.409e+07
9.389e+07
9.369e+07
9.349e+07
9.329e+07
9.309e+07
9.289e+07
9.269e+07
9.249e+07
9.229e+07
9.209e+07
9.189e+07
9.169e+07
9.149e+07
9.129e+07
9.109e+07
9.089e+07
9.069e+07
9.049e+07
9.029e+07
9.009e+07
8.989e+07
8.969e+07
8.949e+07
8.929e+07
8.909e+07
8.889e+07
8.869e+07
8.849e+07
8.829e+07
8.809e+07
8.789e+07
8.769e+07
8.749e+07
8.729e+07
8.709e+07
8.689e+07
8.669e+07
8.649e+07
8.629e+07
8.609e+07
8.589e+07
8.569e+07
8.549e+07
8.529e+07
8.509e+07
8.489e+07
8.469e+07
8.449e+07
8.429e+07
8.409e+07
8.389e+07
8.369e+07
8.349e+07
8.329e+07
8.309e+07
8.289e+07
8.269e+07
8.249e+07
8.229e+07
8.209e+07
8.189e+07
8.169e+07
8.149e+07
8.129e+07
8.109e+07
8.089e+07
8.069e+07
8.049e+07
8.029e+07
8.009e+07
7.989e+07
7.969e+07
7.949e+07
7.929e+07
7.909e+07
7.889e+07
7.869e+07
7.849e+07
7.829e+07
7.809e+07
7.789e+07
7.769e+07
7.749e+07
7.729e+07
7.709e+07
7.689e+07
7.669e+07
7.649e+07
7.629e+07
7.609e+07
7.589e+07
7.569e+07
7.549e+07
7.529e+07
7.509e+07
7.489e+07
7.469e+07
7.449e+07
7.429e+07
7.409e+07
7.389e+07
7.369e+07
7.349e+07
7.329e+07
7.309e+07
7.289e+07
7.269e+07
7.249e+07
7.229e+07
7.209e+07
7.189e+07
7.169e+07
7.149e+07
7.129e+07
7.109e+07
7.089e+07
7.069e+07
7.049e+07
7.029e+07
7.009e+07
6.989e+07
6.969e+07
6.949e+07
6.929e+07
6.909e+07
6.889e+07
6.869e+07
6.849e+07
6.829e+07
6.809e+07
6.789e+07
6.769e+07
6.749e+07
6.729e+07
6.709e+07
6.689e+07
6.669e+07
6.649e+07
6.629e+07
6.609e+07
6.589e+07
6.569e+07
6.549e+07
6.529e+07
6.509e+07
6.489e+07
6.469e+07
6.449e+07
6.429e+07
6.409e+07
6.389e+07
6.369e+07
6.349e+07
6.329e+07
6.309e+07
6.289e+07
6.26899e+07
6.24899e+07
6.22899e+07
6.20899e+07
6.18899e+07
6.16899e+07
6.14899e+07
6.12899e+07
6.10899e+07
6.08899e+07
6.06899e+07
6.04899e+07
6.02899e+07
6.00899e+07
5.98899e+07
5.96899e+07
5.94899e+07
5.92899e+07
5.90899e+07
5.88899e+07
5.86899e+07
5.84899e+07
5.82899e+07
5.80899e+07
5.78899e+07
5.76899e+07
5.74899e+07
5.72899e+07
5.70899e+07
5.68899e+07
5.66899e+07
5.64899e+07
5.62899e+07
5.60899e+07
5.58899e+07
5.56898e+07
5.54898e+07
5.52898e+07
5.50898e+07
5.48898e+07
5.46898e+07
5.44898e+07
5.42898e+07
5.40898e+07
5.38898e+07
5.36898e+07
5.34898e+07
5.32898e+07
5.30898e+07
5.28898e+07
5.26898e+07
5.24898e+07
5.22897e+07
5.20897e+07
5.18897e+07
5.16897e+07
5.14897e+07
5.12897e+07
5.10897e+07
5.08897e+07
5.06897e+07
5.04897e+07
5.02896e+07
5.00896e+07
4.98896e+07
4.96896e+07
4.94896e+07
4.92896e+07
4.90896e+07
4.88896e+07
4.86895e+07
4.84895e+07
4.82895e+07
4.80895e+07
4.78895e+07
4.76895e+07
4.74895e+07
4.72894e+07
4.70894e+07
4.68894e+07
4.66894e+07
4.64894e+07
4.62893e+07
4.60893e+07
4.58893e+07
4.56893e+07
4.54893e+07
4.52892e+07
4.50892e+07
4.48892e+07
4.46892e+07
4.44891e+07
4.42891e+07
4.40891e+07
4.3889e+07
4.3689e+07
4.3489e+07
4.32889e+07
4.30889e+07
4.28889e+07
4.26888e+07
4.24888e+07
4.22888e+07
4.20887e+07
4.18887e+07
4.16886e+07
4.14886e+07
4.12886e+07
4.10885e+07
4.08885e+07
4.06884e+07
4.04884e+07
4.02883e+07
4.00883e+07
3.98882e+07
3.96881e+07
3.94881e+07
3.9288e+07
3.9088e+07
3.88879e+07
3.86878e+07
3.84878e+07
3.82877e+07
3.80876e+07
3.78875e+07
3.76875e+07
3.74874e+07
3.72873e+07
3.70872e+07
3.68871e+07
3.6687e+07
3.64869e+07
3.62868e+07
3.60867e+07
3.58866e+07
3.56865e+07
3.54864e+07
3.52863e+07
3.50862e+07
3.48861e+07
3.46859e+07
3.44858e+07
3.42857e+07
3.40855e+07
3.38854e+07
3.36852e+07
3.34851e+07
3.32849e+07
3.30848e+07
3.28846e+07
3.26844e+07
3.24842e+07
3.22841e+07
3.20839e+07
3.18837e+07
3.16835e+07
3.14833e+07
3.12831e+07
3.10828e+07
3.08826e+07
3.06824e+07
3.04821e+07
3.02819e+07
3.00816e+07
2.98813e+07
2.96811e+07
2.94808e+07
2.92805e+07
2.90802e+07
2.88799e+07
2.86795e+07
2.84792e+07
2.82789e+07
2.80785e+07
2.78781e+07
2.76778e+07
2.74774e+07
2.7277e+07
2.70766e+07
2.68761e+07
2.66757e+07
2.64752e+07
2.62748e+07
2.60743e+07
2.58738e+07
2.56733e+07
2.54727e+07
2.52722e+07
2.50716e+07
2.4871e+07
2.46704e+07
2.44698e+07
2.42691e+07
2.40685e+07
2.38678e+07
2.36671e+07
2.34663e+07
2.32656e+07
2.30648e+07
2.2864e+07
2.26632e+07
2.24623e+07
2.22614e+07
2.20605e+07
2.18596e+07
2.16586e+07
2.14576e+07
2.12566e+07
2.10555e+07
2.08544e+07
2.06533e+07
2.04521e+07
2.02509e+07
2.00496e+07
1.98484e+07
1.9647e+07
1.94457e+07
1.92442e+07
1.90428e+07
1.88413e+07
1.86397e+07
1.84381e+07
1.82364e+07
1.80347e+07
1.7833e+07
1.76311e+07
1.74293e+07
1.72273e+07
1.70253e+07
1.68233e+07
1.66211e+07
1.64189e+07
1.62167e+07
1.60143e+07
1.58119e+07
1.56094e+07
1.54068e+07
1.52041e+07
1.50014e+07
1.47986e+07
1.45956e+07
1.43926e+07
1.41895e+07
1.39863e+07
1.3783e+07
1.35795e+07
1.3376e+07
1.31723e+07
1.29686e+07
1.27647e+07
1.25606e+07
1.23565e+07
1.21522e+07
1.19478e+07
1.17432e+07
1.15385e+07
1.13336e+07
1.11286e+07
1.09234e+07
1.0718e+07
1.05124e+07
1.03067e+07
1.01008e+07
9.89468e+06
9.68836e+06
9.48183e+06
9.27508e+06
9.06811e+06
8.8609e+06
8.65345e+06
8.44575e+06
8.23778e+06
8.02954e+06
7.82102e+06
7.61221e+06
7.40309e+06
7.19365e+06
6.98388e+06
6.77377e+06
6.56329e+06
6.35244e+06
6.1412e+06
5.92955e+06
5.71747e+06
5.50494e+06
5.29194e+06
5.07845e+06
4.86443e+06
4.64986e+06
4.43472e+06
4.21896e+06
4.00255e+06
3.78545e+06
3.56761e+06
3.34898e+06
3.12951e+06
2.90912e+06
2.68774e+06
2.46528e+06
2.24163e+06
2.01666e+06
1.79022e+06
1.5621e+06
1.33205e+06
1.09972e+06
864608
625953
382476
131736
1.1087e+08
1.1067e+08
1.1047e+08
1.1027e+08
1.1007e+08
1.0987e+08
1.0967e+08
1.0947e+08
1.0927e+08
1.0907e+08
1.0887e+08
1.0867e+08
1.0847e+08
1.0827e+08
1.0807e+08
1.0787e+08
1.0767e+08
1.0747e+08
1.0727e+08
1.0707e+08
1.0687e+08
1.0667e+08
1.0647e+08
1.0627e+08
1.0607e+08
1.0587e+08
1.0567e+08
1.0547e+08
1.0527e+08
1.0507e+08
1.0487e+08
1.0467e+08
1.0447e+08
1.0427e+08
1.0407e+08
1.0387e+08
1.0367e+08
1.0347e+08
1.0327e+08
1.0307e+08
1.0287e+08
1.0267e+08
1.0247e+08
1.0227e+08
1.0207e+08
1.0187e+08
1.0167e+08
1.0147e+08
1.0127e+08
1.0107e+08
1.0087e+08
1.0067e+08
1.0047e+08
1.0027e+08
1.0007e+08
9.987e+07
9.967e+07
9.947e+07
9.927e+07
9.907e+07
9.887e+07
9.867e+07
9.847e+07
9.827e+07
9.807e+07
9.787e+07
9.767e+07
9.747e+07
9.727e+07
9.707e+07
9.687e+07
9.667e+07
9.647e+07
9.627e+07
9.607e+07
9.587e+07
9.567e+07
9.547e+07
9.527e+07
9.507e+07
9.487e+07
9.467e+07
9.447e+07
9.427e+07
9.407e+07
9.387e+07
9.367e+07
9.347e+07
9.327e+07
9.307e+07
9.287e+07
9.267e+07
9.247e+07
9.227e+07
9.207e+07
9.187e+07
9.167e+07
9.147e+07
9.127e+07
9.107e+07
9.087e+07
9.067e+07
9.047e+07
9.027e+07
9.007e+07
8.987e+07
8.967e+07
8.947e+07
8.927e+07
8.907e+07
8.887e+07
8.867e+07
8.847e+07
8.827e+07
8.807e+07
8.787e+07
8.767e+07
8.747e+07
8.727e+07
8.707e+07
8.687e+07
8.667e+07
8.647e+07
8.627e+07
8.607e+07
8.587e+07
8.567e+07
8.547e+07
8.527e+07
8.507e+07
8.487e+07
8.467e+07
8.447e+07
8.427e+07
8.407e+07
8.387e+07
8.367e+07
8.347e+07
8.327e+07
8.307e+07
8.287e+07
8.267e+07
8.247e+07
8.227e+07
8.207e+07
8.187e+07
8.167e+07
8.147e+07
8.127e+07
8.107e+07
8.087e+07
8.067e+07
8.047e+07
8.027e+07
8.007e+07
7.987e+07
7.967e+07
7.947e+07
7.927e+07
7.907e+07
7.887e+07
7.867e+07
7.847e+07
7.827e+07
7.807e+07
7.787e+07
7.767e+07
7.747e+07
7.727e+07
7.707e+07
7.687e+07
7.667e+07
7.647e+07
7.627e+07
7.607e+07
7.587e+07
7.567e+07
7.547e+07
7.527e+07
7.507e+07
7.487e+07
7.467e+07
7.447e+07
7.427e+07
7.407e+07
7.387e+07
7.367e+07
7.347e+07
7.327e+07
7.307e+07
7.287e+07
7.267e+07
7.247e+07
7.227e+07
7.207e+07
7.187e+07
7.167e+07
7.147e+07
7.127e+07
7.107e+07
7.087e+07
7.067e+07
7.047e+07
7.027e+07
7.007e+07
6.987e+07
6.967e+07
6.947e+07
6.927e+07
6.907e+07
6.887e+07
6.867e+07
6.847e+07
6.827e+07
6.807e+07
6.787e+07
6.767e+07
6.747e+07
6.727e+07
6.707e+07
6.687e+07
6.667e+07
6.647e+07
6.627e+07
6.607e+07
6.587e+07
6.567e+07
6.547e+07
6.527e+07
6.507e+07
6.487e+07
6.467e+07
6.447e+07
6.427e+07
6.407e+07
6.387e+07
6.367e+07
6.347e+07
6.327e+07
6.307e+07
6.287e+07
6.26699e+07
6.24699e+07
6.22699e+07
6.20699e+07
6.18699e+07
6.16699e+07
6.14699e+07
6.12699e+07
6.10699e+07
6.08699e+07
6.06699e+07
6.04699e+07
6.02699e+07
6.00699e+07
5.98699e+07
5.96699e+07
5.94699e+07
5.92699e+07
5.90699e+07
5.88699e+07
5.86699e+07
5.84699e+07
5.82699e+07
5.80699e+07
5.78699e+07
5.76699e+07
5.74699e+07
5.72699e+07
5.70699e+07
5.68699e+07
5.66699e+07
5.64699e+07
5.62699e+07
5.60699e+07
5.58699e+07
5.56698e+07
5.54698e+07
5.52698e+07
5.50698e+07
5.48698e+07
5.46698e+07
5.44698e+07
5.42698e+07
5.40698e+07
5.38698e+07
5.36698e+07
5.34698e+07
5.32698e+07
5.30698e+07
5.28698e+07
5.26698e+07
5.24698e+07
5.22697e+07
5.20697e+07
5.18697e+07
5.16697e+07
5.14697e+07
5.12697e+07
5.10697e+07
5.08697e+07
5.06697e+07
5.04697e+07
5.02696e+07
5.00696e+07
4.98696e+07
4.96696e+07
4.94696e+07
4.92696e+07
4.90696e+07
4.88696e+07
4.86695e+07
4.84695e+07
4.82695e+07
4.80695e+07
4.78695e+07
4.76695e+07
4.74695e+07
4.72694e+07
4.70694e+07
4.68694e+07
4.66694e+07
4.64694e+07
4.62693e+07
4.60693e+07
4.58693e+07
4.56693e+07
4.54693e+07
4.52692e+07
4.50692e+07
4.48692e+07
4.46692e+07
4.44691e+07
4.42691e+07
4.40691e+07
4.3869e+07
4.3669e+07
4.3469e+07
4.32689e+07
4.30689e+07
4.28689e+07
4.26688e+07
4.24688e+07
4.22688e+07
4.20687e+07
4.18687e+07
4.16686e+07
4.14686e+07
4.12686e+07
4.10685e+07
4.08685e+07
4.06684e+07
4.04684e+07
4.02683e+07
4.00683e+07
3.98682e+07
3.96681e+07
3.94681e+07
3.9268e+07
3.9068e+07
3.88679e+07
3.86678e+07
3.84678e+07
3.82677e+07
3.80676e+07
3.78675e+07
3.76675e+07
3.74674e+07
3.72673e+07
3.70672e+07
3.68671e+07
3.6667e+07
3.64669e+07
3.62668e+07
3.60667e+07
3.58666e+07
3.56665e+07
3.54664e+07
3.52663e+07
3.50662e+07
3.48661e+07
3.46659e+07
3.44658e+07
3.42657e+07
3.40655e+07
3.38654e+07
3.36652e+07
3.34651e+07
3.32649e+07
3.30648e+07
3.28646e+07
3.26644e+07
3.24643e+07
3.22641e+07
3.20639e+07
3.18637e+07
3.16635e+07
3.14633e+07
3.12631e+07
3.10628e+07
3.08626e+07
3.06624e+07
3.04621e+07
3.02619e+07
3.00616e+07
2.98614e+07
2.96611e+07
2.94608e+07
2.92605e+07
2.90602e+07
2.88599e+07
2.86596e+07
2.84592e+07
2.82589e+07
2.80585e+07
2.78582e+07
2.76578e+07
2.74574e+07
2.7257e+07
2.70566e+07
2.68561e+07
2.66557e+07
2.64552e+07
2.62548e+07
2.60543e+07
2.58538e+07
2.56533e+07
2.54527e+07
2.52522e+07
2.50516e+07
2.4851e+07
2.46504e+07
2.44498e+07
2.42492e+07
2.40485e+07
2.38478e+07
2.36471e+07
2.34464e+07
2.32456e+07
2.30448e+07
2.2844e+07
2.26432e+07
2.24423e+07
2.22415e+07
2.20406e+07
2.18396e+07
2.16386e+07
2.14376e+07
2.12366e+07
2.10355e+07
2.08344e+07
2.06333e+07
2.04321e+07
2.02309e+07
2.00297e+07
1.98284e+07
1.96271e+07
1.94257e+07
1.92243e+07
1.90228e+07
1.88213e+07
1.86198e+07
1.84182e+07
1.82165e+07
1.80148e+07
1.7813e+07
1.76112e+07
1.74093e+07
1.72074e+07
1.70054e+07
1.68033e+07
1.66012e+07
1.6399e+07
1.61967e+07
1.59944e+07
1.5792e+07
1.55895e+07
1.53869e+07
1.51842e+07
1.49815e+07
1.47787e+07
1.45757e+07
1.43727e+07
1.41696e+07
1.39664e+07
1.37631e+07
1.35596e+07
1.33561e+07
1.31524e+07
1.29487e+07
1.27448e+07
1.25408e+07
1.23366e+07
1.21323e+07
1.19279e+07
1.17233e+07
1.15186e+07
1.13138e+07
1.11087e+07
1.09035e+07
1.06982e+07
1.04926e+07
1.02869e+07
1.0081e+07
9.87488e+06
9.66857e+06
9.46205e+06
9.25531e+06
9.04834e+06
8.84114e+06
8.6337e+06
8.42601e+06
8.21805e+06
8.00982e+06
7.80131e+06
7.59251e+06
7.3834e+06
7.17398e+06
6.96423e+06
6.75413e+06
6.54367e+06
6.33284e+06
6.12161e+06
5.90998e+06
5.69792e+06
5.48542e+06
5.27244e+06
5.05897e+06
4.84498e+06
4.63044e+06
4.41533e+06
4.19961e+06
3.98324e+06
3.76619e+06
3.5484e+06
3.32983e+06
3.11042e+06
2.89011e+06
2.66882e+06
2.44646e+06
2.22294e+06
1.99813e+06
1.77189e+06
1.54403e+06
1.31434e+06
1.0825e+06
848150
610774
369741
124467
1.1085e+08
1.1065e+08
1.1045e+08
1.1025e+08
1.1005e+08
1.0985e+08
1.0965e+08
1.0945e+08
1.0925e+08
1.0905e+08
1.0885e+08
1.0865e+08
1.0845e+08
1.0825e+08
1.0805e+08
1.0785e+08
1.0765e+08
1.0745e+08
1.0725e+08
1.0705e+08
1.0685e+08
1.0665e+08
1.0645e+08
1.0625e+08
1.0605e+08
1.0585e+08
1.0565e+08
1.0545e+08
1.0525e+08
1.0505e+08
1.0485e+08
1.0465e+08
1.0445e+08
1.0425e+08
1.0405e+08
1.0385e+08
1.0365e+08
1.0345e+08
1.0325e+08
1.0305e+08
1.0285e+08
1.0265e+08
1.0245e+08
1.0225e+08
1.0205e+08
1.0185e+08
1.0165e+08
1.0145e+08
1.0125e+08
1.0105e+08
1.0085e+08
1.0065e+08
1.0045e+08
1.0025e+08
1.0005e+08
9.985e+07
9.965e+07
9.945e+07
9.925e+07
9.905e+07
9.885e+07
9.865e+07
9.845e+07
9.825e+07
9.805e+07
9.785e+07
9.765e+07
9.745e+07
9.725e+07
9.705e+07
9.685e+07
9.665e+07
9.645e+07
9.625e+07
9.605e+07
9.585e+07
9.565e+07
9.545e+07
9.525e+07
9.505e+07
9.485e+07
9.465e+07
9.445e+07
9.425e+07
9.405e+07
9.385e+07
9.365e+07
9.345e+07
9.325e+07
9.305e+07
9.285e+07
9.265e+07
9.245e+07
9.225e+07
9.205e+07
9.185e+07
9.165e+07
9.145e+07
9.125e+07
9.105e+07
9.085e+07
9.065e+07
9.045e+07
9.025e+07
9.005e+07
8.985e+07
8.965e+07
8.945e+07
8.925e+07
8.905e+07
8.885e+07
8.865e+07
8.845e+07
8.825e+07
8.805e+07
8.785e+07
8.765e+07
8.745e+07
8.725e+07
8.705e+07
8.685e+07
8.665e+07
8.645e+07
8.625e+07
8.605e+07
8.585e+07
8.565e+07
8.545e+07
8.525e+07
8.505e+07
8.485e+07
8.465e+07
8.445e+07
8.425e+07
8.405e+07
8.385e+07
8.365e+07
8.345e+07
8.325e+07
8.305e+07
8.285e+07
8.265e+07
8.245e+07
8.225e+07
8.205e+07
8.185e+07
8.165e+07
8.145e+07
8.125e+07
8.105e+07
8.085e+07
8.065e+07
8.045e+07
8.025e+07
8.005e+07
7.985e+07
7.965e+07
7.945e+07
7.925e+07
7.905e+07
7.885e+07
7.865e+07
7.845e+07
7.825e+07
7.805e+07
7.785e+07
7.765e+07
7.745e+07
7.725e+07
7.705e+07
7.685e+07
7.665e+07
7.645e+07
7.625e+07
7.605e+07
7.585e+07
7.565e+07
7.545e+07
7.525e+07
7.505e+07
7.485e+07
7.465e+07
7.445e+07
7.425e+07
7.405e+07
7.385e+07
7.365e+07
7.345e+07
7.325e+07
7.305e+07
7.285e+07
7.265e+07
7.245e+07
7.225e+07
7.205e+07
7.185e+07
7.165e+07
7.145e+07
7.125e+07
7.105e+07
7.085e+07
7.065e+07
7.045e+07
7.025e+07
7.005e+07
6.985e+07
6.965e+07
6.945e+07
6.925e+07
6.905e+07
6.885e+07
6.865e+07
6.845e+07
6.825e+07
6.805e+07
6.785e+07
6.765e+07
6.745e+07
6.725e+07
6.705e+07
6.685e+07
6.665e+07
6.645e+07
6.625e+07
6.605e+07
6.585e+07
6.565e+07
6.545e+07
6.525e+07
6.505e+07
6.485e+07
6.465e+07
6.445e+07
6.425e+07
6.405e+07
6.385e+07
6.365e+07
6.345e+07
6.325e+07
6.305e+07
6.285e+07
6.265e+07
6.24499e+07
6.22499e+07
6.20499e+07
6.18499e+07
6.16499e+07
6.14499e+07
6.12499e+07
6.10499e+07
6.08499e+07
6.06499e+07
6.04499e+07
6.02499e+07
6.00499e+07
5.98499e+07
5.96499e+07
5.94499e+07
5.92499e+07
5.90499e+07
5.88499e+07
5.86499e+07
5.84499e+07
5.82499e+07
5.80499e+07
5.78499e+07
5.76499e+07
5.74499e+07
5.72499e+07
5.70499e+07
5.68499e+07
5.66499e+07
5.64499e+07
5.62499e+07
5.60499e+07
5.58499e+07
5.56498e+07
5.54498e+07
5.52498e+07
5.50498e+07
5.48498e+07
5.46498e+07
5.44498e+07
5.42498e+07
5.40498e+07
5.38498e+07
5.36498e+07
5.34498e+07
5.32498e+07
5.30498e+07
5.28498e+07
5.26498e+07
5.24498e+07
5.22497e+07
5.20497e+07
5.18497e+07
5.16497e+07
5.14497e+07
5.12497e+07
5.10497e+07
5.08497e+07
5.06497e+07
5.04497e+07
5.02496e+07
5.00496e+07
4.98496e+07
4.96496e+07
4.94496e+07
4.92496e+07
4.90496e+07
4.88496e+07
4.86495e+07
4.84495e+07
4.82495e+07
4.80495e+07
4.78495e+07
4.76495e+07
4.74495e+07
4.72494e+07
4.70494e+07
4.68494e+07
4.66494e+07
4.64494e+07
4.62493e+07
4.60493e+07
4.58493e+07
4.56493e+07
4.54493e+07
4.52492e+07
4.50492e+07
4.48492e+07
4.46492e+07
4.44491e+07
4.42491e+07
4.40491e+07
4.3849e+07
4.3649e+07
4.3449e+07
4.32489e+07
4.30489e+07
4.28489e+07
4.26488e+07
4.24488e+07
4.22488e+07
4.20487e+07
4.18487e+07
4.16486e+07
4.14486e+07
4.12486e+07
4.10485e+07
4.08485e+07
4.06484e+07
4.04484e+07
4.02483e+07
4.00483e+07
3.98482e+07
3.96481e+07
3.94481e+07
3.9248e+07
3.9048e+07
3.88479e+07
3.86478e+07
3.84478e+07
3.82477e+07
3.80476e+07
3.78475e+07
3.76475e+07
3.74474e+07
3.72473e+07
3.70472e+07
3.68471e+07
3.6647e+07
3.64469e+07
3.62468e+07
3.60467e+07
3.58466e+07
3.56465e+07
3.54464e+07
3.52463e+07
3.50462e+07
3.48461e+07
3.46459e+07
3.44458e+07
3.42457e+07
3.40455e+07
3.38454e+07
3.36452e+07
3.34451e+07
3.32449e+07
3.30448e+07
3.28446e+07
3.26444e+07
3.24443e+07
3.22441e+07
3.20439e+07
3.18437e+07
3.16435e+07
3.14433e+07
3.12431e+07
3.10429e+07
3.08426e+07
3.06424e+07
3.04421e+07
3.02419e+07
3.00416e+07
2.98414e+07
2.96411e+07
2.94408e+07
2.92405e+07
2.90402e+07
2.88399e+07
2.86396e+07
2.84392e+07
2.82389e+07
2.80385e+07
2.78382e+07
2.76378e+07
2.74374e+07
2.7237e+07
2.70366e+07
2.68362e+07
2.66357e+07
2.64353e+07
2.62348e+07
2.60343e+07
2.58338e+07
2.56333e+07
2.54328e+07
2.52322e+07
2.50317e+07
2.48311e+07
2.46305e+07
2.44298e+07
2.42292e+07
2.40285e+07
2.38279e+07
2.36271e+07
2.34264e+07
2.32257e+07
2.30249e+07
2.28241e+07
2.26233e+07
2.24224e+07
2.22215e+07
2.20206e+07
2.18197e+07
2.16187e+07
2.14177e+07
2.12167e+07
2.10156e+07
2.08145e+07
2.06134e+07
2.04122e+07
2.0211e+07
2.00098e+07
1.98085e+07
1.96072e+07
1.94058e+07
1.92044e+07
1.90029e+07
1.88014e+07
1.85999e+07
1.83983e+07
1.81966e+07
1.79949e+07
1.77931e+07
1.75913e+07
1.73894e+07
1.71875e+07
1.69855e+07
1.67835e+07
1.65813e+07
1.63791e+07
1.61769e+07
1.59745e+07
1.57721e+07
1.55696e+07
1.53671e+07
1.51644e+07
1.49617e+07
1.47588e+07
1.45559e+07
1.43529e+07
1.41498e+07
1.39466e+07
1.37433e+07
1.35399e+07
1.33363e+07
1.31327e+07
1.29289e+07
1.2725e+07
1.2521e+07
1.23169e+07
1.21126e+07
1.19082e+07
1.17036e+07
1.14989e+07
1.12941e+07
1.10891e+07
1.08839e+07
1.06785e+07
1.0473e+07
1.02673e+07
1.00614e+07
9.85529e+06
9.64899e+06
9.44249e+06
9.23576e+06
9.02881e+06
8.82163e+06
8.61421e+06
8.40653e+06
8.1986e+06
7.99039e+06
7.7819e+06
7.57312e+06
7.36404e+06
7.15464e+06
6.94491e+06
6.73484e+06
6.52442e+06
6.31362e+06
6.10243e+06
5.89084e+06
5.67882e+06
5.46636e+06
5.25343e+06
5.04001e+06
4.82608e+06
4.6116e+06
4.39656e+06
4.18091e+06
3.96462e+06
3.74765e+06
3.52997e+06
3.31152e+06
3.09224e+06
2.87208e+06
2.65096e+06
2.42882e+06
2.20555e+06
1.98104e+06
1.75518e+06
1.52781e+06
1.29875e+06
1.0678e+06
834715
599251
361246
120860
1.1083e+08
1.1063e+08
1.1043e+08
1.1023e+08
1.1003e+08
1.0983e+08
1.0963e+08
1.0943e+08
1.0923e+08
1.0903e+08
1.0883e+08
1.0863e+08
1.0843e+08
1.0823e+08
1.0803e+08
1.0783e+08
1.0763e+08
1.0743e+08
1.0723e+08
1.0703e+08
1.0683e+08
1.0663e+08
1.0643e+08
1.0623e+08
1.0603e+08
1.0583e+08
1.0563e+08
1.0543e+08
1.0523e+08
1.0503e+08
1.0483e+08
1.0463e+08
1.0443e+08
1.0423e+08
1.0403e+08
1.0383e+08
1.0363e+08
1.0343e+08
1.0323e+08
1.0303e+08
1.0283e+08
1.0263e+08
1.0243e+08
1.0223e+08
1.0203e+08
1.0183e+08
1.0163e+08
1.0143e+08
1.0123e+08
1.0103e+08
1.0083e+08
1.0063e+08
1.0043e+08
1.0023e+08
1.0003e+08
9.983e+07
9.963e+07
9.943e+07
9.923e+07
9.903e+07
9.883e+07
9.863e+07
9.843e+07
9.823e+07
9.803e+07
9.783e+07
9.763e+07
9.743e+07
9.723e+07
9.703e+07
9.683e+07
9.663e+07
9.643e+07
9.623e+07
9.603e+07
9.583e+07
9.563e+07
9.543e+07
9.523e+07
9.503e+07
9.483e+07
9.463e+07
9.443e+07
9.423e+07
9.403e+07
9.383e+07
9.363e+07
9.343e+07
9.323e+07
9.303e+07
9.283e+07
9.263e+07
9.243e+07
9.223e+07
9.203e+07
9.183e+07
9.163e+07
9.143e+07
9.123e+07
9.103e+07
9.083e+07
9.063e+07
9.043e+07
9.023e+07
9.003e+07
8.983e+07
8.963e+07
8.943e+07
8.923e+07
8.903e+07
8.883e+07
8.863e+07
8.843e+07
8.823e+07
8.803e+07
8.783e+07
8.763e+07
8.743e+07
8.723e+07
8.703e+07
8.683e+07
8.663e+07
8.643e+07
8.623e+07
8.603e+07
8.583e+07
8.563e+07
8.543e+07
8.523e+07
8.503e+07
8.483e+07
8.463e+07
8.443e+07
8.423e+07
8.403e+07
8.383e+07
8.363e+07
8.343e+07
8.323e+07
8.303e+07
8.283e+07
8.263e+07
8.243e+07
8.223e+07
8.203e+07
8.183e+07
8.163e+07
8.143e+07
8.123e+07
8.103e+07
8.083e+07
8.063e+07
8.043e+07
8.023e+07
8.003e+07
7.983e+07
7.963e+07
7.943e+07
7.923e+07
7.903e+07
7.883e+07
7.863e+07
7.843e+07
7.823e+07
7.803e+07
7.783e+07
7.763e+07
7.743e+07
7.723e+07
7.703e+07
7.683e+07
7.663e+07
7.643e+07
7.623e+07
7.603e+07
7.583e+07
7.563e+07
7.543e+07
7.523e+07
7.503e+07
7.483e+07
7.463e+07
7.443e+07
7.423e+07
7.403e+07
7.383e+07
7.363e+07
7.343e+07
7.323e+07
7.303e+07
7.283e+07
7.263e+07
7.243e+07
7.223e+07
7.203e+07
7.183e+07
7.163e+07
7.143e+07
7.123e+07
7.103e+07
7.083e+07
7.063e+07
7.043e+07
7.023e+07
7.003e+07
6.983e+07
6.963e+07
6.943e+07
6.923e+07
6.903e+07
6.883e+07
6.863e+07
6.843e+07
6.823e+07
6.803e+07
6.783e+07
6.763e+07
6.743e+07
6.723e+07
6.703e+07
6.683e+07
6.663e+07
6.643e+07
6.623e+07
6.603e+07
6.583e+07
6.563e+07
6.543e+07
6.523e+07
6.503e+07
6.483e+07
6.463e+07
6.443e+07
6.423e+07
6.403e+07
6.383e+07
6.363e+07
6.343e+07
6.323e+07
6.303e+07
6.283e+07
6.263e+07
6.24299e+07
6.22299e+07
6.20299e+07
6.18299e+07
6.16299e+07
6.14299e+07
6.12299e+07
6.10299e+07
6.08299e+07
6.06299e+07
6.04299e+07
6.02299e+07
6.00299e+07
5.98299e+07
5.96299e+07
5.94299e+07
5.92299e+07
5.90299e+07
5.88299e+07
5.86299e+07
5.84299e+07
5.82299e+07
5.80299e+07
5.78299e+07
5.76299e+07
5.74299e+07
5.72299e+07
5.70299e+07
5.68299e+07
5.66299e+07
5.64299e+07
5.62299e+07
5.60299e+07
5.58299e+07
5.56299e+07
5.54298e+07
5.52298e+07
5.50298e+07
5.48298e+07
5.46298e+07
5.44298e+07
5.42298e+07
5.40298e+07
5.38298e+07
5.36298e+07
5.34298e+07
5.32298e+07
5.30298e+07
5.28298e+07
5.26298e+07
5.24298e+07
5.22297e+07
5.20297e+07
5.18297e+07
5.16297e+07
5.14297e+07
5.12297e+07
5.10297e+07
5.08297e+07
5.06297e+07
5.04297e+07
5.02297e+07
5.00296e+07
4.98296e+07
4.96296e+07
4.94296e+07
4.92296e+07
4.90296e+07
4.88296e+07
4.86296e+07
4.84295e+07
4.82295e+07
4.80295e+07
4.78295e+07
4.76295e+07
4.74295e+07
4.72294e+07
4.70294e+07
4.68294e+07
4.66294e+07
4.64294e+07
4.62293e+07
4.60293e+07
4.58293e+07
4.56293e+07
4.54293e+07
4.52292e+07
4.50292e+07
4.48292e+07
4.46292e+07
4.44291e+07
4.42291e+07
4.40291e+07
4.3829e+07
4.3629e+07
4.3429e+07
4.3229e+07
4.30289e+07
4.28289e+07
4.26288e+07
4.24288e+07
4.22288e+07
4.20287e+07
4.18287e+07
4.16287e+07
4.14286e+07
4.12286e+07
4.10285e+07
4.08285e+07
4.06284e+07
4.04284e+07
4.02283e+07
4.00283e+07
3.98282e+07
3.96282e+07
3.94281e+07
3.9228e+07
3.9028e+07
3.88279e+07
3.86278e+07
3.84278e+07
3.82277e+07
3.80276e+07
3.78276e+07
3.76275e+07
3.74274e+07
3.72273e+07
3.70272e+07
3.68271e+07
3.6627e+07
3.64269e+07
3.62269e+07
3.60268e+07
3.58266e+07
3.56265e+07
3.54264e+07
3.52263e+07
3.50262e+07
3.48261e+07
3.4626e+07
3.44258e+07
3.42257e+07
3.40256e+07
3.38254e+07
3.36253e+07
3.34251e+07
3.3225e+07
3.30248e+07
3.28246e+07
3.26245e+07
3.24243e+07
3.22241e+07
3.20239e+07
3.18237e+07
3.16235e+07
3.14233e+07
3.12231e+07
3.10229e+07
3.08226e+07
3.06224e+07
3.04222e+07
3.02219e+07
3.00217e+07
2.98214e+07
2.96211e+07
2.94208e+07
2.92205e+07
2.90202e+07
2.88199e+07
2.86196e+07
2.84193e+07
2.82189e+07
2.80186e+07
2.78182e+07
2.76178e+07
2.74175e+07
2.72171e+07
2.70166e+07
2.68162e+07
2.66158e+07
2.64153e+07
2.62149e+07
2.60144e+07
2.58139e+07
2.56134e+07
2.54128e+07
2.52123e+07
2.50117e+07
2.48111e+07
2.46105e+07
2.44099e+07
2.42093e+07
2.40086e+07
2.38079e+07
2.36072e+07
2.34065e+07
2.32057e+07
2.3005e+07
2.28042e+07
2.26033e+07
2.24025e+07
2.22016e+07
2.20007e+07
2.17998e+07
2.15988e+07
2.13978e+07
2.11968e+07
2.09957e+07
2.07946e+07
2.05935e+07
2.03923e+07
2.01911e+07
1.99899e+07
1.97886e+07
1.95873e+07
1.93859e+07
1.91845e+07
1.89831e+07
1.87816e+07
1.858e+07
1.83784e+07
1.81768e+07
1.79751e+07
1.77733e+07
1.75715e+07
1.73696e+07
1.71677e+07
1.69657e+07
1.67637e+07
1.65615e+07
1.63593e+07
1.61571e+07
1.59548e+07
1.57524e+07
1.55499e+07
1.53473e+07
1.51447e+07
1.49419e+07
1.47391e+07
1.45362e+07
1.43332e+07
1.41301e+07
1.39269e+07
1.37236e+07
1.35202e+07
1.33167e+07
1.3113e+07
1.29093e+07
1.27054e+07
1.25014e+07
1.22973e+07
1.2093e+07
1.18886e+07
1.16841e+07
1.14794e+07
1.12746e+07
1.10696e+07
1.08644e+07
1.06591e+07
1.04535e+07
1.02479e+07
1.0042e+07
9.8359e+06
9.62962e+06
9.42314e+06
9.21644e+06
9.00951e+06
8.80236e+06
8.59496e+06
8.38731e+06
8.17941e+06
7.97123e+06
7.76278e+06
7.55404e+06
7.34499e+06
7.13563e+06
6.92595e+06
6.71592e+06
6.50554e+06
6.29479e+06
6.08366e+06
5.87212e+06
5.66016e+06
5.44776e+06
5.23491e+06
5.02156e+06
4.80771e+06
4.59333e+06
4.37838e+06
4.16284e+06
3.94668e+06
3.72984e+06
3.51231e+06
3.29402e+06
3.07494e+06
2.855e+06
2.63414e+06
2.4123e+06
2.18938e+06
1.96531e+06
1.73998e+06
1.51327e+06
1.28507e+06
1.05523e+06
823658
590270
355134
118584
1.1081e+08
1.1061e+08
1.1041e+08
1.1021e+08
1.1001e+08
1.0981e+08
1.0961e+08
1.0941e+08
1.0921e+08
1.0901e+08
1.0881e+08
1.0861e+08
1.0841e+08
1.0821e+08
1.0801e+08
1.0781e+08
1.0761e+08
1.0741e+08
1.0721e+08
1.0701e+08
1.0681e+08
1.0661e+08
1.0641e+08
1.0621e+08
1.0601e+08
1.0581e+08
1.0561e+08
1.0541e+08
1.0521e+08
1.0501e+08
1.0481e+08
1.0461e+08
1.0441e+08
1.0421e+08
1.0401e+08
1.0381e+08
1.0361e+08
1.0341e+08
1.0321e+08
1.0301e+08
1.0281e+08
1.0261e+08
1.0241e+08
1.0221e+08
1.0201e+08
1.0181e+08
1.0161e+08
1.0141e+08
1.0121e+08
1.0101e+08
1.0081e+08
1.0061e+08
1.0041e+08
1.0021e+08
1.0001e+08
9.981e+07
9.961e+07
9.941e+07
9.921e+07
9.901e+07
9.881e+07
9.861e+07
9.841e+07
9.821e+07
9.801e+07
9.781e+07
9.761e+07
9.741e+07
9.721e+07
9.701e+07
9.681e+07
9.661e+07
9.641e+07
9.621e+07
9.601e+07
9.581e+07
9.561e+07
9.541e+07
9.521e+07
9.501e+07
9.481e+07
9.461e+07
9.441e+07
9.421e+07
9.401e+07
9.381e+07
9.361e+07
9.341e+07
9.321e+07
9.301e+07
9.281e+07
9.261e+07
9.241e+07
9.221e+07
9.201e+07
9.181e+07
9.161e+07
9.141e+07
9.121e+07
9.101e+07
9.081e+07
9.061e+07
9.041e+07
9.021e+07
9.001e+07
8.981e+07
8.961e+07
8.941e+07
8.921e+07
8.901e+07
8.881e+07
8.861e+07
8.841e+07
8.821e+07
8.801e+07
8.781e+07
8.761e+07
8.741e+07
8.721e+07
8.701e+07
8.681e+07
8.661e+07
8.641e+07
8.621e+07
8.601e+07
8.581e+07
8.561e+07
8.541e+07
8.521e+07
8.501e+07
8.481e+07
8.461e+07
8.441e+07
8.421e+07
8.401e+07
8.381e+07
8.361e+07
8.341e+07
8.321e+07
8.301e+07
8.281e+07
8.261e+07
8.241e+07
8.221e+07
8.201e+07
8.181e+07
8.161e+07
8.141e+07
8.121e+07
8.101e+07
8.081e+07
8.061e+07
8.041e+07
8.021e+07
8.001e+07
7.981e+07
7.961e+07
7.941e+07
7.921e+07
7.901e+07
7.881e+07
7.861e+07
7.841e+07
7.821e+07
7.801e+07
7.781e+07
7.761e+07
7.741e+07
7.721e+07
7.701e+07
7.681e+07
7.661e+07
7.641e+07
7.621e+07
7.601e+07
7.581e+07
7.561e+07
7.541e+07
7.521e+07
7.501e+07
7.481e+07
7.461e+07
7.441e+07
7.421e+07
7.401e+07
7.381e+07
7.361e+07
7.341e+07
7.321e+07
7.301e+07
7.281e+07
7.261e+07
7.241e+07
7.221e+07
7.201e+07
7.181e+07
7.161e+07
7.141e+07
7.121e+07
7.101e+07
7.081e+07
7.061e+07
7.041e+07
7.021e+07
7.001e+07
6.981e+07
6.961e+07
6.941e+07
6.921e+07
6.901e+07
6.881e+07
6.861e+07
6.841e+07
6.821e+07
6.801e+07
6.781e+07
6.761e+07
6.741e+07
6.721e+07
6.701e+07
6.681e+07
6.661e+07
6.641e+07
6.621e+07
6.601e+07
6.581e+07
6.561e+07
6.541e+07
6.521e+07
6.501e+07
6.481e+07
6.461e+07
6.441e+07
6.421e+07
6.401e+07
6.381e+07
6.361e+07
6.341e+07
6.321e+07
6.301e+07
6.281e+07
6.261e+07
6.24099e+07
6.22099e+07
6.20099e+07
6.18099e+07
6.16099e+07
6.14099e+07
6.12099e+07
6.10099e+07
6.08099e+07
6.06099e+07
6.04099e+07
6.02099e+07
6.00099e+07
5.98099e+07
5.96099e+07
5.94099e+07
5.92099e+07
5.90099e+07
5.88099e+07
5.86099e+07
5.84099e+07
5.82099e+07
5.80099e+07
5.78099e+07
5.76099e+07
5.74099e+07
5.72099e+07
5.70099e+07
5.68099e+07
5.66099e+07
5.64099e+07
5.62099e+07
5.60099e+07
5.58099e+07
5.56099e+07
5.54098e+07
5.52098e+07
5.50098e+07
5.48098e+07
5.46098e+07
5.44098e+07
5.42098e+07
5.40098e+07
5.38098e+07
5.36098e+07
5.34098e+07
5.32098e+07
5.30098e+07
5.28098e+07
5.26098e+07
5.24098e+07
5.22097e+07
5.20097e+07
5.18097e+07
5.16097e+07
5.14097e+07
5.12097e+07
5.10097e+07
5.08097e+07
5.06097e+07
5.04097e+07
5.02097e+07
5.00096e+07
4.98096e+07
4.96096e+07
4.94096e+07
4.92096e+07
4.90096e+07
4.88096e+07
4.86096e+07
4.84095e+07
4.82095e+07
4.80095e+07
4.78095e+07
4.76095e+07
4.74095e+07
4.72094e+07
4.70094e+07
4.68094e+07
4.66094e+07
4.64094e+07
4.62093e+07
4.60093e+07
4.58093e+07
4.56093e+07
4.54093e+07
4.52092e+07
4.50092e+07
4.48092e+07
4.46092e+07
4.44091e+07
4.42091e+07
4.40091e+07
4.3809e+07
4.3609e+07
4.3409e+07
4.3209e+07
4.30089e+07
4.28089e+07
4.26089e+07
4.24088e+07
4.22088e+07
4.20087e+07
4.18087e+07
4.16087e+07
4.14086e+07
4.12086e+07
4.10085e+07
4.08085e+07
4.06084e+07
4.04084e+07
4.02083e+07
4.00083e+07
3.98082e+07
3.96082e+07
3.94081e+07
3.9208e+07
3.9008e+07
3.88079e+07
3.86078e+07
3.84078e+07
3.82077e+07
3.80076e+07
3.78076e+07
3.76075e+07
3.74074e+07
3.72073e+07
3.70072e+07
3.68071e+07
3.66071e+07
3.6407e+07
3.62069e+07
3.60068e+07
3.58067e+07
3.56066e+07
3.54064e+07
3.52063e+07
3.50062e+07
3.48061e+07
3.4606e+07
3.44058e+07
3.42057e+07
3.40056e+07
3.38054e+07
3.36053e+07
3.34051e+07
3.3205e+07
3.30048e+07
3.28046e+07
3.26045e+07
3.24043e+07
3.22041e+07
3.20039e+07
3.18037e+07
3.16035e+07
3.14033e+07
3.12031e+07
3.10029e+07
3.08027e+07
3.06024e+07
3.04022e+07
3.0202e+07
3.00017e+07
2.98014e+07
2.96012e+07
2.94009e+07
2.92006e+07
2.90003e+07
2.88e+07
2.85997e+07
2.83993e+07
2.8199e+07
2.79986e+07
2.77983e+07
2.75979e+07
2.73975e+07
2.71971e+07
2.69967e+07