/*--------------------------------*- C++ -*----------------------------------*\
| =========                 |                                                 |
| \\      /  F ield         | foam-extend: Open Source CFD                    |
|  \\    /   O peration     | Version:     4.0                                |
|   \\  /    A nd           | Web:         http://www.foam-extend.org         |
|    \\/     M anipulation  |                                                 |
\*---------------------------------------------------------------------------*/
FoamFile
{
    version     2.0;
    format      ascii;
    class       surfaceScalarField;
    location    "0";
    object      phia;
}
// * * * * * * * * * * * * * * * * * * * * * * * * * * * * * * * * * * * * * //

dimensions      [0 3 -1 0 0 0 0];

internalField   nonuniform List<scalar> 
109350
(
0.002
0.0002
0.002
0.0002
0.002
0.0002
0.002
0.0002
0.002
0.0002
0.002
0.0002
0.002
0.0002
0.002
0.0002
0.002
0.0002
0.002
0.0002
0.002
0.0002
0.002
0.0002
0.002
0.0002
0.002
0.0002
0.002
0.0002
0.002
0.0002
0.002
0.0002
0.002
0.0002
0.002
0.0002
0.002
0.0002
0.002
0.0002
0.002
0.0002
0.002
0.0002
0.002
0.0002
0.002
0.0002
0.002
0.0002
0.002
0.0002
0.002
0.0002
0.002
0.0002
0.002
0.0002
0.002
0.0002
0.002
0.0002
0.002
0.0002
0.002
0.0002
0.002
0.0002
0.002
0.0002
0.002
0.0002
0.002
0.0002
0.002
0.0002
0.002
0.0002
0.002
0.0002
0.002
0.0002
0.002
0.0002
0.002
0.0002
0.002
0.0002
0.002
0.0002
0.002
0.0002
0.002
0.0002
0.002
0.0002
0.002
0.0002
0.002
0.0002
0.002
0.0002
0.002
0.0002
0.002
0.0002
0.002
0.0002
0.002
0.0002
0.002
0.0002
0.002
0.0002
0.002
0.0002
0.002
0.0002
0.002
0.0002
0.002
0.0002
0.002
0.0002
0.002
0.0002
0.002
0.0002
0.002
0.0002
0.002
0.0002
0.002
0.0002
0.002
0.0002
0.002
0.0002
0.002
0.0002
0.002
0.0002
0.002
0.0002
0.002
0.0002
0.002
0.0002
0.002
0.0002
0.002
0.0002
0.002
0.0002
0.002
0.0002
0.002
0.0002
0.002
0.0002
0.002
0.0002
0.002
0.0002
0.002
0.0002
0.002
0.0002
0.002
0.0002
0.002
0.0002
0.002
0.0002
0.002
0.0002
0.002
0.0002
0.002
0.0002
0.002
0.0002
0.002
0.0002
0.002
0.0002
0.002
0.0002
0.002
0.0002
0.002
0.0002
0.002
0.0002
0.002
0.0002
0.002
0.0002
0.002
0.0002
0.002
0.0002
0.002
0.0002
0.002
0.0002
0.002
0.0002
0.002
0.0002
0.002
0.0002
0.002
0.0002
0.002
0.0002
0.002
0.0002
0.002
0.0002
0.002
0.0002
0.002
0.0002
0.002
0.0002
0.002
0.0002
0.002
0.0002
0.002
0.0002
0.002
0.0002
0.002
0.0002
0.002
0.0002
0.002
0.0002
0.002
0.0002
0.002
0.0002
0.002
0.0002
0.002
0.0002
0.002
0.0002
0.002
0.0002
0.002
0.0002
0.002
0.0002
0.002
0.0002
0.002
0.0002
0.002
0.0002
0.002
0.0002
0.002
0.0002
0.002
0.0002
0.002
0.0002
0.002
0.0002
0.002
0.0002
0.002
0.0002
0.002
0.0002
0.002
0.0002
0.002
0.0002
0.002
0.0002
0.002
0.0002
0.002
0.0002
0.002
0.0002
0.002
0.0002
0.002
0.0002
0.002
0.0002
0.002
0.0002
0.002
0.0002
0.002
0.0002
0.002
0.0002
0.002
0.0002
0.002
0.0002
0.002
0.0002
0.002
0.0002
0.002
0.0002
0.002
0.0002
0.002
0.0002
0.002
0.0002
0.002
0.0002
0.002
0.0002
0.002
0.0002
0.002
0.0002
0.002
0.0002
0.002
0.0002
0.002
0.0002
0.002
0.0002
0.002
0.0002
0.002
0.0002
0.002
0.0002
0.002
0.0002
0.002
0.0002
0.002
0.0002
0.002
0.0002
0.002
0.0002
0.002
0.0002
0.002
0.0002
0.002
0.0002
0.002
0.0002
0.002
0.0002
0.002
0.0002
0.002
0.0002
0.002
0.0002
0.002
0.0002
0.002
0.0002
0.002
0.0002
0.002
0.0002
0.002
0.0002
0.002
0.0002
0.002
0.0002
0.002
0.0002
0.002
0.0002
0.002
0.0002
0.002
0.0002
0.002
0.0002
0.002
0.0002
0.002
0.0002
0.002
0.0002
0.002
0.0002
0.002
0.0002
0.002
0.0002
0.002
0.0002
0.00200001
0.0002
0.00200001
0.0002
0.00200001
0.0002
0.00200001
0.0002
0.00200001
0.0002
0.00200001
0.0002
0.00200001
0.0002
0.00200001
0.0002
0.00200001
0.0002
0.00200001
0.0002
0.00200001
0.0002
0.00200001
0.0002
0.00200001
0.0002
0.00200001
0.0002
0.00200001
0.0002
0.00200001
0.0002
0.00200001
0.0002
0.00200001
0.0002
0.00200001
0.0002
0.00200001
0.0002
0.00200001
0.0002
0.00200001
0.0002
0.00200001
0.0002
0.00200001
0.0002
0.00200001
0.0002
0.00200001
0.0002
0.00200001
0.0002
0.00200001
0.0002
0.00200001
0.0002
0.00200001
0.0002
0.00200001
0.0002
0.00200001
0.0002
0.00200001
0.0002
0.00200001
0.0002
0.00200001
0.0002
0.00200002
0.0002
0.00200002
0.0002
0.00200002
0.0002
0.00200002
0.000199999
0.00200002
0.000199999
0.00200002
0.000199999
0.00200002
0.000199999
0.00200002
0.000199999
0.00200002
0.000199999
0.00200002
0.000199999
0.00200002
0.000199999
0.00200002
0.000199999
0.00200002
0.000199999
0.00200002
0.000199999
0.00200002
0.000199999
0.00200002
0.000199999
0.00200002
0.000199999
0.00200003
0.000199999
0.00200003
0.000199999
0.00200003
0.000199999
0.00200003
0.000199999
0.00200003
0.000199999
0.00200003
0.000199999
0.00200003
0.000199999
0.00200003
0.000199999
0.00200003
0.000199999
0.00200003
0.000199999
0.00200004
0.000199999
0.00200004
0.000199999
0.00200004
0.000199999
0.00200004
0.000199999
0.00200004
0.000199999
0.00200004
0.000199999
0.00200004
0.000199999
0.00200004
0.000199999
0.00200005
0.000199999
0.00200005
0.000199999
0.00200005
0.000199999
0.00200005
0.000199998
0.00200005
0.000199998
0.00200005
0.000199998
0.00200005
0.000199998
0.00200006
0.000199998
0.00200006
0.000199998
0.00200006
0.000199998
0.00200006
0.000199998
0.00200006
0.000199998
0.00200007
0.000199998
0.00200007
0.000199998
0.00200007
0.000199998
0.00200007
0.000199998
0.00200007
0.000199998
0.00200008
0.000199998
0.00200008
0.000199998
0.00200008
0.000199997
0.00200008
0.000199997
0.00200009
0.000199997
0.00200009
0.000199997
0.00200009
0.000199997
0.0020001
0.000199997
0.0020001
0.000199997
0.0020001
0.000199997
0.00200011
0.000199997
0.00200011
0.000199997
0.00200011
0.000199997
0.00200012
0.000199996
0.00200012
0.000199996
0.00200012
0.000199996
0.00200013
0.000199996
0.00200013
0.000199996
0.00200014
0.000199996
0.00200014
0.000199996
0.00200014
0.000199996
0.00200015
0.000199995
0.00200015
0.000199995
0.00200016
0.000199995
0.00200016
0.000199995
0.00200017
0.000199995
0.00200017
0.000199995
0.00200018
0.000199994
0.00200019
0.000199994
0.00200019
0.000199994
0.0020002
0.000199994
0.0020002
0.000199994
0.00200021
0.000199994
0.00200022
0.000199993
0.00200022
0.000199993
0.00200023
0.000199993
0.00200024
0.000199993
0.00200025
0.000199992
0.00200025
0.000199992
0.00200026
0.000199992
0.00200027
0.000199992
0.00200028
0.000199991
0.00200029
0.000199991
0.0020003
0.000199991
0.00200031
0.000199991
0.00200032
0.00019999
0.00200033
0.00019999
0.00200034
0.00019999
0.00200035
0.000199989
0.00200036
0.000199989
0.00200037
0.000199989
0.00200038
0.000199988
0.00200039
0.000199988
0.00200041
0.000199987
0.00200042
0.000199987
0.00200043
0.000199987
0.00200045
0.000199986
0.00200046
0.000199986
0.00200048
0.000199985
0.00200049
0.000199985
0.00200051
0.000199984
0.00200052
0.000199984
0.00200054
0.000199983
0.00200056
0.000199983
0.00200057
0.000199982
0.00200059
0.000199982
0.00200061
0.000199981
0.00200063
0.00019998
0.00200065
0.00019998
0.00200067
0.000199979
0.00200069
0.000199979
0.00200072
0.000199978
0.00200074
0.000199977
0.00200076
0.000199976
0.00200079
0.000199976
0.00200081
0.000199975
0.00200084
0.000199974
0.00200086
0.000199973
0.00200089
0.000199972
0.00200092
0.000199972
0.00200095
0.000199971
0.00200098
0.00019997
0.00200101
0.000199969
0.00200104
0.000199968
0.00200108
0.000199967
0.00200111
0.000199966
0.00200115
0.000199965
0.00200118
0.000199963
0.00200122
0.000199962
0.00200126
0.000199961
0.0020013
0.00019996
0.00200134
0.000199959
0.00200138
0.000199957
0.00200143
0.000199956
0.00200147
0.000199954
0.00200152
0.000199953
0.00200157
0.000199951
0.00200162
0.00019995
0.00200167
0.000199948
0.00200172
0.000199947
0.00200178
0.000199945
0.00200184
0.000199943
0.00200189
0.000199941
0.00200196
0.00019994
0.00200202
0.000199938
0.00200208
0.000199936
0.00200215
0.000199934
0.00200222
0.000199931
0.00200229
0.000199929
0.00200236
0.000199927
0.00200244
0.000199925
0.00200251
0.000199922
0.00200259
0.00019992
0.00200268
0.000199917
0.00200276
0.000199915
0.00200285
0.000199912
0.00200294
0.000199909
0.00200304
0.000199906
0.00200313
0.000199903
0.00200323
0.0001999
0.00200334
0.000199897
0.00200344
0.000199894
0.00200355
0.00019989
0.00200366
0.000199887
0.00200378
0.000199883
0.0020039
0.000199879
0.00200403
0.000199875
0.00200416
0.000199871
0.00200429
0.000199867
0.00200443
0.000199863
0.00200457
0.000199859
0.00200471
0.000199854
0.00200486
0.00019985
0.00200502
0.000199845
0.00200518
0.00019984
0.00200534
0.000199835
0.00200551
0.000199829
0.00200569
0.000199824
0.00200587
0.000199818
0.00200606
0.000199813
0.00200625
0.000199807
0.00200645
0.0001998
0.00200666
0.000199794
0.00200687
0.000199787
0.00200709
0.000199781
0.00200732
0.000199774
0.00200755
0.000199766
0.00200779
0.000199759
0.00200804
0.000199751
0.0020083
0.000199743
0.00200856
0.000199735
0.00200884
0.000199727
0.00200912
0.000199718
0.00200941
0.000199709
0.00200971
0.000199699
0.00201002
0.00019969
0.00201034
0.00019968
0.00201067
0.00019967
0.00201101
0.000199659
0.00201136
0.000199648
0.00201173
0.000199637
0.0020121
0.000199625
0.00201249
0.000199613
0.00201289
0.000199601
0.0020133
0.000199588
0.00201372
0.000199575
0.00201416
0.000199561
0.00201461
0.000199547
0.00201508
0.000199533
0.00201556
0.000199518
0.00201606
0.000199502
0.00201658
0.000199486
0.00201711
0.000199469
0.00201766
0.000199452
0.00201822
0.000199435
0.0020188
0.000199416
0.00201941
0.000199398
0.00202003
0.000199378
0.00202067
0.000199358
0.00202133
0.000199337
0.00202202
0.000199316
0.00202272
0.000199294
0.00202345
0.000199271
0.00202421
0.000199247
0.00202498
0.000199223
0.00202579
0.000199197
0.00202661
0.000199171
0.00202747
0.000199144
0.00202835
0.000199116
0.00202927
0.000199087
0.00203021
0.000199057
0.00203118
0.000199026
0.00203219
0.000198994
0.00203323
0.000198961
0.0020343
0.000198927
0.00203541
0.000198891
0.00203655
0.000198855
0.00203774
0.000198817
0.00203896
0.000198777
0.00204022
0.000198736
0.00204153
0.000198694
0.00204288
0.00019865
0.00204428
0.000198604
0.00204572
0.000198557
0.00204721
0.000198508
0.00204875
0.000198457
0.00205035
0.000198404
0.002052
0.000198349
0.00205371
0.000198292
0.00205548
0.000198232
0.00205731
0.00019817
0.0020592
0.000198106
0.00206116
0.000198038
0.00206319
0.000197968
0.0020653
0.000197895
0.00206748
0.000197819
0.00206974
0.000197739
0.00207209
0.000197656
0.00207452
0.000197568
0.00207704
0.000197477
0.00207966
0.000197381
0.00208238
0.00019728
0.00208521
0.000197174
0.00208814
0.000197062
0.0020912
0.000196945
0.00209438
0.000196821
0.00209769
0.00019669
0.00210114
0.000196551
0.00210473
0.000196403
0.00210849
0.000196246
0.00211241
0.000196079
0.00211651
0.000195901
0.0021208
0.00019571
0.00212529
0.000195506
0.00213001
0.000195285
0.00213496
0.000195047
0.00214017
0.000194789
0.00214566
0.000194509
0.00215146
0.000194202
0.00215759
0.000193866
0.0021641
0.000193496
0.00217101
0.000193084
0.00217839
0.000192626
0.00218628
0.00019211
0.00219475
0.000191526
0.00220389
0.000190859
0.0022138
0.000190088
0.00222462
0.000189187
0.0022365
0.000188119
0.00224967
0.000186832
0.00226442
0.00018525
0.00228116
0.000183258
0.00230049
0.000180669
0.00232332
0.00017717
0.00235113
0.000172189
0.00238655
0.00016458
0.00243476
0.000151789
0.00250741
0.000127355
7.26865e-05
0.002
0.0002
0.002
0.0002
0.002
0.0002
0.002
0.0002
0.002
0.0002
0.002
0.0002
0.002
0.0002
0.002
0.0002
0.002
0.0002
0.002
0.0002
0.002
0.0002
0.002
0.0002
0.002
0.0002
0.002
0.0002
0.002
0.0002
0.002
0.0002
0.002
0.0002
0.002
0.0002
0.002
0.0002
0.002
0.0002
0.002
0.0002
0.002
0.0002
0.002
0.0002
0.002
0.0002
0.002
0.0002
0.002
0.0002
0.002
0.0002
0.002
0.0002
0.002
0.0002
0.002
0.0002
0.002
0.0002
0.002
0.0002
0.002
0.0002
0.002
0.0002
0.002
0.0002
0.002
0.0002
0.002
0.0002
0.002
0.0002
0.002
0.0002
0.002
0.0002
0.002
0.0002
0.002
0.0002
0.002
0.0002
0.002
0.0002
0.002
0.0002
0.002
0.0002
0.002
0.0002
0.002
0.0002
0.002
0.0002
0.002
0.0002
0.002
0.0002
0.002
0.0002
0.002
0.0002
0.002
0.0002
0.002
0.0002
0.002
0.0002
0.002
0.0002
0.002
0.0002
0.002
0.0002
0.002
0.0002
0.002
0.0002
0.002
0.0002
0.002
0.0002
0.002
0.0002
0.002
0.0002
0.002
0.0002
0.002
0.0002
0.002
0.0002
0.002
0.0002
0.002
0.0002
0.002
0.0002
0.002
0.0002
0.002
0.0002
0.002
0.0002
0.002
0.0002
0.002
0.0002
0.002
0.0002
0.002
0.0002
0.002
0.0002
0.002
0.0002
0.002
0.0002
0.002
0.0002
0.002
0.0002
0.002
0.0002
0.002
0.0002
0.002
0.0002
0.002
0.0002
0.002
0.0002
0.002
0.0002
0.002
0.0002
0.002
0.0002
0.002
0.0002
0.002
0.0002
0.002
0.0002
0.002
0.0002
0.002
0.0002
0.002
0.0002
0.002
0.0002
0.002
0.0002
0.002
0.0002
0.002
0.0002
0.002
0.0002
0.002
0.0002
0.002
0.0002
0.002
0.0002
0.002
0.0002
0.002
0.0002
0.002
0.0002
0.002
0.0002
0.002
0.0002
0.002
0.0002
0.002
0.0002
0.002
0.0002
0.002
0.0002
0.002
0.0002
0.002
0.0002
0.002
0.0002
0.002
0.0002
0.002
0.0002
0.002
0.0002
0.002
0.0002
0.002
0.0002
0.002
0.0002
0.002
0.0002
0.002
0.0002
0.002
0.0002
0.002
0.0002
0.002
0.0002
0.002
0.0002
0.002
0.0002
0.002
0.0002
0.002
0.0002
0.002
0.0002
0.002
0.0002
0.002
0.0002
0.002
0.0002
0.002
0.0002
0.002
0.0002
0.002
0.0002
0.002
0.0002
0.002
0.0002
0.002
0.0002
0.002
0.0002
0.002
0.0002
0.002
0.0002
0.002
0.0002
0.002
0.0002
0.002
0.0002
0.002
0.0002
0.002
0.0002
0.002
0.0002
0.002
0.0002
0.002
0.0002
0.002
0.0002
0.002
0.0002
0.002
0.0002
0.002
0.0002
0.002
0.0002
0.002
0.0002
0.002
0.0002
0.002
0.0002
0.002
0.0002
0.002
0.0002
0.002
0.0002
0.002
0.0002
0.002
0.0002
0.002
0.0002
0.002
0.0002
0.002
0.0002
0.002
0.0002
0.002
0.0002
0.002
0.0002
0.002
0.0002
0.002
0.0002
0.002
0.0002
0.002
0.0002
0.002
0.0002
0.002
0.0002
0.002
0.0002
0.002
0.0002
0.002
0.0002
0.002
0.0002
0.002
0.0002
0.002
0.0002
0.002
0.0002
0.002
0.0002
0.002
0.0002
0.002
0.0002
0.002
0.0002
0.002
0.0002
0.002
0.0002
0.002
0.0002
0.002
0.0002
0.002
0.0002
0.002
0.0002
0.002
0.0002
0.002
0.0002
0.002
0.0002
0.002
0.0002
0.002
0.0002
0.002
0.0002
0.002
0.0002
0.002
0.0002
0.002
0.0002
0.002
0.0002
0.00200001
0.0002
0.00200001
0.0002
0.00200001
0.0002
0.00200001
0.0002
0.00200001
0.0002
0.00200001
0.0002
0.00200001
0.0002
0.00200001
0.0002
0.00200001
0.0002
0.00200001
0.0002
0.00200001
0.0002
0.00200001
0.0002
0.00200001
0.0002
0.00200001
0.0002
0.00200001
0.0002
0.00200001
0.000199999
0.00200001
0.000199999
0.00200001
0.000199999
0.00200001
0.000199999
0.00200001
0.000199999
0.00200001
0.000199999
0.00200001
0.000199999
0.00200001
0.000199999
0.00200001
0.000199999
0.00200001
0.000199999
0.00200001
0.000199999
0.00200001
0.000199999
0.00200001
0.000199999
0.00200001
0.000199999
0.00200001
0.000199999
0.00200001
0.000199999
0.00200001
0.000199999
0.00200001
0.000199999
0.00200001
0.000199999
0.00200002
0.000199999
0.00200002
0.000199999
0.00200002
0.000199999
0.00200002
0.000199999
0.00200002
0.000199999
0.00200002
0.000199999
0.00200002
0.000199999
0.00200002
0.000199999
0.00200002
0.000199999
0.00200002
0.000199999
0.00200002
0.000199999
0.00200002
0.000199999
0.00200002
0.000199999
0.00200002
0.000199999
0.00200002
0.000199999
0.00200002
0.000199999
0.00200002
0.000199998
0.00200003
0.000199998
0.00200003
0.000199998
0.00200003
0.000199998
0.00200003
0.000199998
0.00200003
0.000199998
0.00200003
0.000199998
0.00200003
0.000199998
0.00200003
0.000199998
0.00200003
0.000199998
0.00200003
0.000199998
0.00200004
0.000199998
0.00200004
0.000199998
0.00200004
0.000199998
0.00200004
0.000199998
0.00200004
0.000199998
0.00200004
0.000199997
0.00200004
0.000199997
0.00200004
0.000199997
0.00200005
0.000199997
0.00200005
0.000199997
0.00200005
0.000199997
0.00200005
0.000199997
0.00200005
0.000199997
0.00200005
0.000199997
0.00200005
0.000199997
0.00200006
0.000199997
0.00200006
0.000199996
0.00200006
0.000199996
0.00200006
0.000199996
0.00200006
0.000199996
0.00200007
0.000199996
0.00200007
0.000199996
0.00200007
0.000199996
0.00200007
0.000199996
0.00200007
0.000199995
0.00200008
0.000199995
0.00200008
0.000199995
0.00200008
0.000199995
0.00200008
0.000199995
0.00200009
0.000199995
0.00200009
0.000199994
0.00200009
0.000199994
0.0020001
0.000199994
0.0020001
0.000199994
0.0020001
0.000199994
0.00200011
0.000199993
0.00200011
0.000199993
0.00200011
0.000199993
0.00200012
0.000199993
0.00200012
0.000199993
0.00200012
0.000199992
0.00200013
0.000199992
0.00200013
0.000199992
0.00200014
0.000199992
0.00200014
0.000199991
0.00200014
0.000199991
0.00200015
0.000199991
0.00200015
0.000199991
0.00200016
0.00019999
0.00200016
0.00019999
0.00200017
0.00019999
0.00200017
0.000199989
0.00200018
0.000199989
0.00200019
0.000199989
0.00200019
0.000199988
0.0020002
0.000199988
0.0020002
0.000199987
0.00200021
0.000199987
0.00200022
0.000199987
0.00200022
0.000199986
0.00200023
0.000199986
0.00200024
0.000199985
0.00200025
0.000199985
0.00200025
0.000199984
0.00200026
0.000199984
0.00200027
0.000199983
0.00200028
0.000199983
0.00200029
0.000199982
0.0020003
0.000199982
0.00200031
0.000199981
0.00200032
0.00019998
0.00200033
0.00019998
0.00200034
0.000199979
0.00200035
0.000199979
0.00200036
0.000199978
0.00200037
0.000199977
0.00200038
0.000199976
0.00200039
0.000199976
0.00200041
0.000199975
0.00200042
0.000199974
0.00200043
0.000199973
0.00200045
0.000199972
0.00200046
0.000199972
0.00200048
0.000199971
0.00200049
0.00019997
0.00200051
0.000199969
0.00200052
0.000199968
0.00200054
0.000199967
0.00200056
0.000199966
0.00200057
0.000199964
0.00200059
0.000199963
0.00200061
0.000199962
0.00200063
0.000199961
0.00200065
0.00019996
0.00200067
0.000199958
0.00200069
0.000199957
0.00200071
0.000199956
0.00200074
0.000199954
0.00200076
0.000199953
0.00200079
0.000199951
0.00200081
0.00019995
0.00200084
0.000199948
0.00200086
0.000199947
0.00200089
0.000199945
0.00200092
0.000199943
0.00200095
0.000199941
0.00200098
0.000199939
0.00200101
0.000199938
0.00200104
0.000199936
0.00200108
0.000199933
0.00200111
0.000199931
0.00200115
0.000199929
0.00200118
0.000199927
0.00200122
0.000199925
0.00200126
0.000199922
0.0020013
0.00019992
0.00200134
0.000199917
0.00200138
0.000199914
0.00200143
0.000199912
0.00200147
0.000199909
0.00200152
0.000199906
0.00200157
0.000199903
0.00200162
0.0001999
0.00200167
0.000199897
0.00200172
0.000199893
0.00200178
0.00019989
0.00200183
0.000199886
0.00200189
0.000199883
0.00200195
0.000199879
0.00200202
0.000199875
0.00200208
0.000199871
0.00200215
0.000199867
0.00200221
0.000199863
0.00200229
0.000199859
0.00200236
0.000199854
0.00200243
0.000199849
0.00200251
0.000199845
0.00200259
0.00019984
0.00200267
0.000199835
0.00200276
0.000199829
0.00200285
0.000199824
0.00200294
0.000199818
0.00200303
0.000199812
0.00200313
0.000199806
0.00200323
0.0001998
0.00200333
0.000199794
0.00200344
0.000199787
0.00200355
0.00019978
0.00200366
0.000199773
0.00200378
0.000199766
0.0020039
0.000199759
0.00200402
0.000199751
0.00200415
0.000199743
0.00200428
0.000199735
0.00200442
0.000199726
0.00200456
0.000199718
0.00200471
0.000199709
0.00200486
0.000199699
0.00200501
0.00019969
0.00200517
0.00019968
0.00200534
0.00019967
0.00200551
0.000199659
0.00200568
0.000199648
0.00200587
0.000199637
0.00200605
0.000199625
0.00200625
0.000199613
0.00200645
0.000199601
0.00200665
0.000199588
0.00200686
0.000199575
0.00200708
0.000199561
0.00200731
0.000199547
0.00200754
0.000199533
0.00200778
0.000199518
0.00200803
0.000199503
0.00200829
0.000199487
0.00200855
0.00019947
0.00200883
0.000199453
0.00200911
0.000199436
0.0020094
0.000199418
0.0020097
0.000199399
0.00201001
0.00019938
0.00201033
0.00019936
0.00201066
0.00019934
0.002011
0.000199319
0.00201135
0.000199297
0.00201171
0.000199274
0.00201209
0.000199251
0.00201247
0.000199227
0.00201287
0.000199202
0.00201328
0.000199177
0.00201371
0.00019915
0.00201415
0.000199123
0.0020146
0.000199095
0.00201507
0.000199066
0.00201555
0.000199036
0.00201605
0.000199004
0.00201656
0.000198972
0.00201709
0.000198939
0.00201764
0.000198905
0.0020182
0.00019887
0.00201879
0.000198834
0.00201939
0.000198796
0.00202001
0.000198757
0.00202065
0.000198717
0.00202131
0.000198675
0.00202199
0.000198632
0.0020227
0.000198588
0.00202343
0.000198542
0.00202418
0.000198495
0.00202496
0.000198446
0.00202576
0.000198396
0.00202659
0.000198343
0.00202744
0.000198289
0.00202832
0.000198233
0.00202924
0.000198176
0.00203018
0.000198116
0.00203115
0.000198054
0.00203215
0.00019799
0.00203319
0.000197924
0.00203426
0.000197855
0.00203537
0.000197784
0.00203652
0.000197711
0.0020377
0.000197635
0.00203892
0.000197556
0.00204018
0.000197474
0.00204149
0.000197389
0.00204283
0.000197301
0.00204423
0.00019721
0.00204567
0.000197116
0.00204716
0.000197018
0.0020487
0.000196916
0.00205029
0.00019681
0.00205194
0.0001967
0.00205365
0.000196586
0.00205541
0.000196467
0.00205724
0.000196343
0.00205913
0.000196214
0.00206109
0.00019608
0.00206312
0.00019594
0.00206522
0.000195794
0.0020674
0.000195641
0.00206966
0.000195482
0.002072
0.000195315
0.00207443
0.000195141
0.00207694
0.000194958
0.00207956
0.000194766
0.00208227
0.000194565
0.00208509
0.000194354
0.00208803
0.000194131
0.00209107
0.000193896
0.00209425
0.000193649
0.00209755
0.000193387
0.00210099
0.00019311
0.00210458
0.000192816
0.00210832
0.000192503
0.00211223
0.00019217
0.00211632
0.000191815
0.00212059
0.000191435
0.00212507
0.000191027
0.00212977
0.000190588
0.0021347
0.000190114
0.00213989
0.000189601
0.00214535
0.000189043
0.00215112
0.000188434
0.00215722
0.000187767
0.00216369
0.000187031
0.00217055
0.000186216
0.00217787
0.000185308
0.00218569
0.000184289
0.00219408
0.000183136
0.00220312
0.000181821
0.0022129
0.000180306
0.00222355
0.000178541
0.00223521
0.000176457
0.00224808
0.00017396
0.00226242
0.000170912
0.00227857
0.000167111
0.00229699
0.000162247
0.00231834
0.000155822
0.00234352
0.000147005
0.00237376
0.000134344
0.00241033
0.000115222
0.00245274
8.49455e-05
3.60772e-05
0.002
0.0002
0.002
0.0002
0.002
0.0002
0.002
0.0002
0.002
0.0002
0.002
0.0002
0.002
0.0002
0.002
0.0002
0.002
0.0002
0.002
0.0002
0.002
0.0002
0.002
0.0002
0.002
0.0002
0.002
0.0002
0.002
0.0002
0.002
0.0002
0.002
0.0002
0.002
0.0002
0.002
0.0002
0.002
0.0002
0.002
0.0002
0.002
0.0002
0.002
0.0002
0.002
0.0002
0.002
0.0002
0.002
0.0002
0.002
0.0002
0.002
0.0002
0.002
0.0002
0.002
0.0002
0.002
0.0002
0.002
0.0002
0.002
0.0002
0.002
0.0002
0.002
0.0002
0.002
0.0002
0.002
0.0002
0.002
0.0002
0.002
0.0002
0.002
0.0002
0.002
0.0002
0.002
0.0002
0.002
0.0002
0.002
0.0002
0.002
0.0002
0.002
0.0002
0.002
0.0002
0.002
0.0002
0.002
0.0002
0.002
0.0002
0.002
0.0002
0.002
0.0002
0.002
0.0002
0.002
0.0002
0.002
0.0002
0.002
0.0002
0.002
0.0002
0.002
0.0002
0.002
0.0002
0.002
0.0002
0.002
0.0002
0.002
0.0002
0.002
0.0002
0.002
0.0002
0.002
0.0002
0.002
0.0002
0.002
0.0002
0.002
0.0002
0.002
0.0002
0.002
0.0002
0.002
0.0002
0.002
0.0002
0.002
0.0002
0.002
0.0002
0.002
0.0002
0.002
0.0002
0.002
0.0002
0.002
0.0002
0.002
0.0002
0.002
0.0002
0.002
0.0002
0.002
0.0002
0.002
0.0002
0.002
0.0002
0.002
0.0002
0.002
0.0002
0.002
0.0002
0.002
0.0002
0.002
0.0002
0.002
0.0002
0.002
0.0002
0.002
0.0002
0.002
0.0002
0.002
0.0002
0.002
0.0002
0.002
0.0002
0.002
0.0002
0.002
0.0002
0.002
0.0002
0.002
0.0002
0.002
0.0002
0.002
0.0002
0.002
0.0002
0.002
0.0002
0.002
0.0002
0.002
0.0002
0.002
0.0002
0.002
0.0002
0.002
0.0002
0.002
0.0002
0.002
0.0002
0.002
0.0002
0.002
0.0002
0.002
0.0002
0.002
0.0002
0.002
0.0002
0.002
0.0002
0.002
0.0002
0.002
0.0002
0.002
0.0002
0.002
0.0002
0.002
0.0002
0.002
0.0002
0.002
0.0002
0.002
0.0002
0.002
0.0002
0.002
0.0002
0.002
0.0002
0.002
0.0002
0.002
0.0002
0.002
0.0002
0.002
0.0002
0.002
0.0002
0.002
0.0002
0.002
0.0002
0.002
0.0002
0.002
0.0002
0.002
0.0002
0.002
0.0002
0.002
0.0002
0.002
0.0002
0.002
0.0002
0.002
0.0002
0.002
0.0002
0.002
0.0002
0.002
0.0002
0.002
0.0002
0.002
0.0002
0.002
0.0002
0.002
0.0002
0.002
0.0002
0.002
0.0002
0.002
0.0002
0.002
0.0002
0.002
0.0002
0.002
0.0002
0.002
0.0002
0.002
0.0002
0.002
0.0002
0.002
0.0002
0.002
0.0002
0.002
0.0002
0.002
0.0002
0.002
0.0002
0.002
0.0002
0.002
0.0002
0.002
0.0002
0.002
0.0002
0.002
0.0002
0.002
0.0002
0.002
0.0002
0.002
0.0002
0.002
0.0002
0.002
0.0002
0.002
0.0002
0.002
0.0002
0.002
0.0002
0.002
0.0002
0.002
0.0002
0.002
0.0002
0.002
0.0002
0.002
0.0002
0.002
0.0002
0.002
0.0002
0.002
0.0002
0.002
0.0002
0.002
0.0002
0.002
0.0002
0.002
0.0002
0.002
0.0002
0.002
0.0002
0.002
0.0002
0.002
0.0002
0.002
0.0002
0.002
0.0002
0.002
0.0002
0.002
0.0002
0.002
0.0002
0.002
0.0002
0.002
0.0002
0.002
0.0002
0.002
0.0002
0.002
0.0002
0.002
0.0002
0.002
0.0002
0.00200001
0.0002
0.00200001
0.0002
0.00200001
0.000199999
0.00200001
0.000199999
0.00200001
0.000199999
0.00200001
0.000199999
0.00200001
0.000199999
0.00200001
0.000199999
0.00200001
0.000199999
0.00200001
0.000199999
0.00200001
0.000199999
0.00200001
0.000199999
0.00200001
0.000199999
0.00200001
0.000199999
0.00200001
0.000199999
0.00200001
0.000199999
0.00200001
0.000199999
0.00200001
0.000199999
0.00200001
0.000199999
0.00200001
0.000199999
0.00200001
0.000199999
0.00200001
0.000199999
0.00200001
0.000199999
0.00200001
0.000199999
0.00200001
0.000199999
0.00200001
0.000199999
0.00200001
0.000199999
0.00200001
0.000199999
0.00200001
0.000199999
0.00200001
0.000199999
0.00200001
0.000199999
0.00200001
0.000199999
0.00200001
0.000199999
0.00200001
0.000199999
0.00200001
0.000199999
0.00200002
0.000199999
0.00200002
0.000199999
0.00200002
0.000199998
0.00200002
0.000199998
0.00200002
0.000199998
0.00200002
0.000199998
0.00200002
0.000199998
0.00200002
0.000199998
0.00200002
0.000199998
0.00200002
0.000199998
0.00200002
0.000199998
0.00200002
0.000199998
0.00200002
0.000199998
0.00200002
0.000199998
0.00200002
0.000199998
0.00200002
0.000199998
0.00200003
0.000199998
0.00200003
0.000199998
0.00200003
0.000199997
0.00200003
0.000199997
0.00200003
0.000199997
0.00200003
0.000199997
0.00200003
0.000199997
0.00200003
0.000199997
0.00200003
0.000199997
0.00200003
0.000199997
0.00200003
0.000199997
0.00200004
0.000199997
0.00200004
0.000199997
0.00200004
0.000199996
0.00200004
0.000199996
0.00200004
0.000199996
0.00200004
0.000199996
0.00200004
0.000199996
0.00200004
0.000199996
0.00200005
0.000199996
0.00200005
0.000199996
0.00200005
0.000199995
0.00200005
0.000199995
0.00200005
0.000199995
0.00200005
0.000199995
0.00200006
0.000199995
0.00200006
0.000199995
0.00200006
0.000199994
0.00200006
0.000199994
0.00200006
0.000199994
0.00200007
0.000199994
0.00200007
0.000199994
0.00200007
0.000199994
0.00200007
0.000199993
0.00200007
0.000199993
0.00200008
0.000199993
0.00200008
0.000199993
0.00200008
0.000199992
0.00200008
0.000199992
0.00200009
0.000199992
0.00200009
0.000199992
0.00200009
0.000199991
0.0020001
0.000199991
0.0020001
0.000199991
0.0020001
0.000199991
0.0020001
0.00019999
0.00200011
0.00019999
0.00200011
0.00019999
0.00200012
0.000199989
0.00200012
0.000199989
0.00200012
0.000199989
0.00200013
0.000199988
0.00200013
0.000199988
0.00200013
0.000199987
0.00200014
0.000199987
0.00200014
0.000199987
0.00200015
0.000199986
0.00200015
0.000199986
0.00200016
0.000199985
0.00200016
0.000199985
0.00200017
0.000199984
0.00200017
0.000199984
0.00200018
0.000199983
0.00200018
0.000199983
0.00200019
0.000199982
0.0020002
0.000199982
0.0020002
0.000199981
0.00200021
0.000199981
0.00200022
0.00019998
0.00200022
0.000199979
0.00200023
0.000199979
0.00200024
0.000199978
0.00200025
0.000199977
0.00200025
0.000199976
0.00200026
0.000199976
0.00200027
0.000199975
0.00200028
0.000199974
0.00200029
0.000199973
0.0020003
0.000199972
0.00200031
0.000199972
0.00200032
0.000199971
0.00200033
0.00019997
0.00200034
0.000199969
0.00200035
0.000199968
0.00200036
0.000199967
0.00200037
0.000199966
0.00200038
0.000199965
0.00200039
0.000199964
0.00200041
0.000199962
0.00200042
0.000199961
0.00200043
0.00019996
0.00200045
0.000199959
0.00200046
0.000199957
0.00200047
0.000199956
0.00200049
0.000199955
0.0020005
0.000199953
0.00200052
0.000199952
0.00200054
0.00019995
0.00200055
0.000199948
0.00200057
0.000199947
0.00200059
0.000199945
0.00200061
0.000199943
0.00200063
0.000199942
0.00200065
0.00019994
0.00200067
0.000199938
0.00200069
0.000199936
0.00200071
0.000199934
0.00200074
0.000199932
0.00200076
0.000199929
0.00200078
0.000199927
0.00200081
0.000199925
0.00200083
0.000199922
0.00200086
0.00019992
0.00200089
0.000199917
0.00200092
0.000199915
0.00200095
0.000199912
0.00200098
0.000199909
0.00200101
0.000199906
0.00200104
0.000199903
0.00200107
0.0001999
0.00200111
0.000199897
0.00200114
0.000199894
0.00200118
0.00019989
0.00200122
0.000199887
0.00200126
0.000199883
0.0020013
0.00019988
0.00200134
0.000199876
0.00200138
0.000199872
0.00200142
0.000199868
0.00200147
0.000199863
0.00200152
0.000199859
0.00200156
0.000199855
0.00200161
0.00019985
0.00200167
0.000199845
0.00200172
0.00019984
0.00200177
0.000199835
0.00200183
0.00019983
0.00200189
0.000199824
0.00200195
0.000199819
0.00200201
0.000199813
0.00200208
0.000199807
0.00200214
0.000199801
0.00200221
0.000199795
0.00200228
0.000199788
0.00200235
0.000199781
0.00200243
0.000199774
0.00200251
0.000199767
0.00200259
0.00019976
0.00200267
0.000199752
0.00200275
0.000199744
0.00200284
0.000199736
0.00200293
0.000199727
0.00200303
0.000199719
0.00200312
0.00019971
0.00200322
0.0001997
0.00200333
0.000199691
0.00200343
0.000199681
0.00200354
0.000199671
0.00200365
0.00019966
0.00200377
0.00019965
0.00200389
0.000199638
0.00200402
0.000199627
0.00200414
0.000199615
0.00200428
0.000199603
0.00200441
0.00019959
0.00200455
0.000199577
0.0020047
0.000199563
0.00200485
0.000199549
0.002005
0.000199535
0.00200516
0.00019952
0.00200533
0.000199505
0.0020055
0.000199489
0.00200567
0.000199473
0.00200585
0.000199456
0.00200604
0.000199438
0.00200623
0.00019942
0.00200643
0.000199402
0.00200664
0.000199383
0.00200685
0.000199363
0.00200707
0.000199343
0.00200729
0.000199322
0.00200753
0.0001993
0.00200777
0.000199278
0.00200802
0.000199255
0.00200827
0.000199231
0.00200854
0.000199206
0.00200881
0.000199181
0.00200909
0.000199155
0.00200938
0.000199128
0.00200968
0.0001991
0.00200999
0.000199071
0.00201031
0.000199041
0.00201064
0.00019901
0.00201098
0.000198979
0.00201133
0.000198946
0.00201169
0.000198912
0.00201206
0.000198877