/*--------------------------------*- C++ -*----------------------------------*\
| =========                 |                                                 |
| \\      /  F ield         | foam-extend: Open Source CFD                    |
|  \\    /   O peration     | Version:     4.0                                |
|   \\  /    A nd           | Web:         http://www.foam-extend.org         |
|    \\/     M anipulation  |                                                 |
\*---------------------------------------------------------------------------*/
FoamFile
{
    version     2.0;
    format      ascii;
    class       volVectorField;
    location    "0";
    object      Ua;
}
// * * * * * * * * * * * * * * * * * * * * * * * * * * * * * * * * * * * * * //

dimensions      [0 1 -1 0 0 0 0];

internalField   nonuniform List<vector> 
55000
(
(0.001 0.0001 0)
(0.001 0.0001 0)
(0.001 0.0001 0)
(0.001 0.0001 0)
(0.001 0.0001 0)
(0.001 0.0001 0)
(0.001 0.0001 0)
(0.001 0.0001 0)
(0.001 0.0001 0)
(0.001 0.0001 0)
(0.001 0.0001 0)
(0.001 0.0001 0)
(0.001 0.0001 0)
(0.001 0.0001 0)
(0.001 0.0001 0)
(0.001 0.0001 0)
(0.001 0.0001 0)
(0.001 0.0001 0)
(0.001 0.0001 0)
(0.001 0.0001 0)
(0.001 0.0001 0)
(0.001 0.0001 0)
(0.001 0.0001 0)
(0.001 0.0001 0)
(0.001 0.0001 0)
(0.001 0.0001 0)
(0.001 0.0001 0)
(0.001 0.0001 0)
(0.001 0.0001 0)
(0.001 0.0001 0)
(0.001 0.0001 0)
(0.001 0.0001 0)
(0.001 0.0001 0)
(0.001 0.0001 0)
(0.001 0.0001 0)
(0.001 0.0001 0)
(0.001 0.0001 0)
(0.001 0.0001 0)
(0.001 0.0001 0)
(0.001 0.0001 0)
(0.001 0.0001 0)
(0.001 0.0001 0)
(0.001 0.0001 0)
(0.001 0.0001 0)
(0.001 0.0001 0)
(0.001 0.0001 0)
(0.001 0.0001 0)
(0.001 0.0001 0)
(0.001 0.0001 0)
(0.001 0.0001 0)
(0.001 0.0001 0)
(0.001 0.0001 0)
(0.001 0.0001 0)
(0.001 0.0001 0)
(0.001 0.0001 0)
(0.001 0.0001 0)
(0.001 0.0001 0)
(0.001 0.0001 0)
(0.001 0.0001 0)
(0.001 0.0001 0)
(0.001 0.0001 0)
(0.001 0.0001 0)
(0.001 0.0001 0)
(0.001 0.0001 0)
(0.001 0.0001 0)
(0.001 0.0001 0)
(0.001 0.0001 0)
(0.001 0.0001 0)
(0.001 0.0001 0)
(0.001 0.0001 0)
(0.001 0.0001 0)
(0.001 0.0001 0)
(0.001 0.0001 0)
(0.001 0.0001 0)
(0.001 0.0001 0)
(0.001 0.0001 0)
(0.001 0.0001 0)
(0.001 0.0001 0)
(0.001 0.0001 0)
(0.001 0.0001 0)
(0.001 0.0001 0)
(0.001 0.0001 0)
(0.001 0.0001 0)
(0.001 0.0001 0)
(0.001 0.0001 0)
(0.001 0.0001 0)
(0.001 0.0001 0)
(0.001 0.0001 0)
(0.001 0.0001 0)
(0.001 0.0001 0)
(0.001 0.0001 0)
(0.001 0.0001 0)
(0.001 0.0001 0)
(0.001 0.0001 0)
(0.001 0.0001 0)
(0.001 0.0001 0)
(0.001 0.0001 0)
(0.001 0.0001 0)
(0.001 0.0001 0)
(0.001 0.0001 0)
(0.001 0.0001 0)
(0.001 0.0001 0)
(0.001 0.0001 0)
(0.001 0.0001 0)
(0.001 0.0001 0)
(0.001 0.0001 0)
(0.001 0.0001 0)
(0.001 0.0001 0)
(0.001 0.0001 0)
(0.001 0.0001 0)
(0.001 0.0001 0)
(0.001 0.0001 0)
(0.001 0.0001 0)
(0.001 0.0001 0)
(0.001 0.0001 0)
(0.001 0.0001 0)
(0.001 0.0001 0)
(0.001 0.0001 0)
(0.001 0.0001 0)
(0.001 0.0001 0)
(0.001 0.0001 0)
(0.001 0.0001 0)
(0.001 0.0001 0)
(0.001 0.0001 0)
(0.001 0.0001 0)
(0.001 0.0001 0)
(0.001 0.0001 0)
(0.001 0.0001 0)
(0.001 0.0001 0)
(0.001 0.0001 0)
(0.001 0.0001 0)
(0.001 0.0001 0)
(0.001 0.0001 0)
(0.001 0.0001 0)
(0.001 0.0001 0)
(0.001 0.0001 0)
(0.001 0.0001 0)
(0.001 0.0001 0)
(0.001 0.0001 0)
(0.001 0.0001 0)
(0.001 0.0001 0)
(0.001 0.0001 0)
(0.001 0.0001 0)
(0.001 0.0001 0)
(0.001 0.0001 0)
(0.001 0.0001 0)
(0.001 0.0001 0)
(0.001 0.0001 0)
(0.001 0.0001 0)
(0.001 0.0001 0)
(0.001 0.0001 0)
(0.001 0.0001 0)
(0.001 0.0001 0)
(0.001 0.0001 0)
(0.001 0.0001 0)
(0.001 0.0001 0)
(0.001 0.0001 0)
(0.001 0.0001 0)
(0.001 0.0001 0)
(0.001 0.0001 0)
(0.001 0.0001 0)
(0.001 0.0001 0)
(0.001 0.0001 0)
(0.001 0.0001 0)
(0.001 0.0001 0)
(0.001 0.0001 0)
(0.001 0.0001 0)
(0.001 0.0001 0)
(0.001 0.0001 0)
(0.001 0.0001 0)
(0.001 0.0001 0)
(0.001 0.0001 0)
(0.001 0.0001 0)
(0.001 0.0001 0)
(0.001 0.0001 0)
(0.001 0.0001 0)
(0.001 0.0001 0)
(0.001 0.0001 0)
(0.001 0.0001 0)
(0.001 0.0001 0)
(0.001 0.0001 0)
(0.001 0.0001 0)
(0.001 0.0001 0)
(0.001 0.0001 0)
(0.001 0.0001 0)
(0.001 0.0001 0)
(0.001 0.0001 0)
(0.001 0.0001 0)
(0.001 0.0001 0)
(0.001 0.0001 0)
(0.001 0.0001 0)
(0.001 0.0001 0)
(0.001 0.0001 0)
(0.001 0.0001 0)
(0.001 0.0001 0)
(0.001 0.0001 0)
(0.001 0.0001 0)
(0.001 0.0001 0)
(0.001 0.0001 0)
(0.001 0.0001 0)
(0.001 0.0001 0)
(0.001 0.0001 0)
(0.001 0.0001 0)
(0.001 0.0001 0)
(0.001 0.0001 0)
(0.001 0.0001 0)
(0.001 0.0001 0)
(0.001 0.0001 0)
(0.001 0.0001 0)
(0.001 0.0001 0)
(0.001 0.0001 0)
(0.001 0.0001 0)
(0.001 0.0001 0)
(0.001 9.99999e-05 0)
(0.001 9.99999e-05 0)
(0.001 9.99999e-05 0)
(0.001 9.99999e-05 0)
(0.001 9.99999e-05 0)
(0.001 9.99999e-05 0)
(0.001 9.99999e-05 0)
(0.001 9.99999e-05 0)
(0.001 9.99999e-05 0)
(0.001 9.99999e-05 0)
(0.001 9.99999e-05 0)
(0.001 9.99999e-05 0)
(0.001 9.99999e-05 0)
(0.001 9.99999e-05 0)
(0.00100001 9.99999e-05 0)
(0.00100001 9.99999e-05 0)
(0.00100001 9.99999e-05 0)
(0.00100001 9.99999e-05 0)
(0.00100001 9.99999e-05 0)
(0.00100001 9.99999e-05 0)
(0.00100001 9.99999e-05 0)
(0.00100001 9.99999e-05 0)
(0.00100001 9.99999e-05 0)
(0.00100001 9.99999e-05 0)
(0.00100001 9.99999e-05 0)
(0.00100001 9.99999e-05 0)
(0.00100001 9.99999e-05 0)
(0.00100001 9.99999e-05 0)
(0.00100001 9.99999e-05 0)
(0.00100001 9.99999e-05 0)
(0.00100001 9.99999e-05 0)
(0.00100001 9.99999e-05 0)
(0.00100001 9.99999e-05 0)
(0.00100001 9.99999e-05 0)
(0.00100001 9.99999e-05 0)
(0.00100001 9.99998e-05 0)
(0.00100001 9.99998e-05 0)
(0.00100001 9.99998e-05 0)
(0.00100001 9.99998e-05 0)
(0.00100001 9.99998e-05 0)
(0.00100001 9.99998e-05 0)
(0.00100001 9.99998e-05 0)
(0.00100001 9.99998e-05 0)
(0.00100001 9.99998e-05 0)
(0.00100001 9.99998e-05 0)
(0.00100001 9.99998e-05 0)
(0.00100001 9.99998e-05 0)
(0.00100001 9.99998e-05 0)
(0.00100001 9.99998e-05 0)
(0.00100002 9.99998e-05 0)
(0.00100002 9.99998e-05 0)
(0.00100002 9.99997e-05 0)
(0.00100002 9.99997e-05 0)
(0.00100002 9.99997e-05 0)
(0.00100002 9.99997e-05 0)
(0.00100002 9.99997e-05 0)
(0.00100002 9.99997e-05 0)
(0.00100002 9.99997e-05 0)
(0.00100002 9.99997e-05 0)
(0.00100002 9.99997e-05 0)
(0.00100002 9.99997e-05 0)
(0.00100002 9.99997e-05 0)
(0.00100002 9.99996e-05 0)
(0.00100002 9.99996e-05 0)
(0.00100002 9.99996e-05 0)
(0.00100003 9.99996e-05 0)
(0.00100003 9.99996e-05 0)
(0.00100003 9.99996e-05 0)
(0.00100003 9.99996e-05 0)
(0.00100003 9.99996e-05 0)
(0.00100003 9.99995e-05 0)
(0.00100003 9.99995e-05 0)
(0.00100003 9.99995e-05 0)
(0.00100003 9.99995e-05 0)
(0.00100003 9.99995e-05 0)
(0.00100003 9.99995e-05 0)
(0.00100004 9.99994e-05 0)
(0.00100004 9.99994e-05 0)
(0.00100004 9.99994e-05 0)
(0.00100004 9.99994e-05 0)
(0.00100004 9.99994e-05 0)
(0.00100004 9.99993e-05 0)
(0.00100004 9.99993e-05 0)
(0.00100004 9.99993e-05 0)
(0.00100005 9.99993e-05 0)
(0.00100005 9.99993e-05 0)
(0.00100005 9.99992e-05 0)
(0.00100005 9.99992e-05 0)
(0.00100005 9.99992e-05 0)
(0.00100005 9.99992e-05 0)
(0.00100006 9.99991e-05 0)
(0.00100006 9.99991e-05 0)
(0.00100006 9.99991e-05 0)
(0.00100006 9.9999e-05 0)
(0.00100006 9.9999e-05 0)
(0.00100006 9.9999e-05 0)
(0.00100007 9.9999e-05 0)
(0.00100007 9.99989e-05 0)
(0.00100007 9.99989e-05 0)
(0.00100007 9.99988e-05 0)
(0.00100008 9.99988e-05 0)
(0.00100008 9.99988e-05 0)
(0.00100008 9.99987e-05 0)
(0.00100008 9.99987e-05 0)
(0.00100009 9.99987e-05 0)
(0.00100009 9.99986e-05 0)
(0.00100009 9.99986e-05 0)
(0.00100009 9.99985e-05 0)
(0.0010001 9.99985e-05 0)
(0.0010001 9.99984e-05 0)
(0.0010001 9.99984e-05 0)
(0.00100011 9.99983e-05 0)
(0.00100011 9.99983e-05 0)
(0.00100011 9.99982e-05 0)
(0.00100012 9.99982e-05 0)
(0.00100012 9.99981e-05 0)
(0.00100012 9.9998e-05 0)
(0.00100013 9.9998e-05 0)
(0.00100013 9.99979e-05 0)
(0.00100014 9.99978e-05 0)
(0.00100014 9.99978e-05 0)
(0.00100015 9.99977e-05 0)
(0.00100015 9.99976e-05 0)
(0.00100016 9.99976e-05 0)
(0.00100016 9.99975e-05 0)
(0.00100017 9.99974e-05 0)
(0.00100017 9.99973e-05 0)
(0.00100018 9.99972e-05 0)
(0.00100018 9.99971e-05 0)
(0.00100019 9.9997e-05 0)
(0.00100019 9.9997e-05 0)
(0.0010002 9.99969e-05 0)
(0.00100021 9.99968e-05 0)
(0.00100021 9.99967e-05 0)
(0.00100022 9.99965e-05 0)
(0.00100023 9.99964e-05 0)
(0.00100023 9.99963e-05 0)
(0.00100024 9.99962e-05 0)
(0.00100025 9.99961e-05 0)
(0.00100026 9.9996e-05 0)
(0.00100027 9.99958e-05 0)
(0.00100027 9.99957e-05 0)
(0.00100028 9.99956e-05 0)
(0.00100029 9.99954e-05 0)
(0.0010003 9.99953e-05 0)
(0.00100031 9.99951e-05 0)
(0.00100032 9.9995e-05 0)
(0.00100033 9.99948e-05 0)
(0.00100034 9.99946e-05 0)
(0.00100035 9.99945e-05 0)
(0.00100036 9.99943e-05 0)
(0.00100038 9.99941e-05 0)
(0.00100039 9.99939e-05 0)
(0.0010004 9.99937e-05 0)
(0.00100041 9.99935e-05 0)
(0.00100043 9.99933e-05 0)
(0.00100044 9.99931e-05 0)
(0.00100045 9.99929e-05 0)
(0.00100047 9.99927e-05 0)
(0.00100048 9.99924e-05 0)
(0.0010005 9.99922e-05 0)
(0.00100051 9.99919e-05 0)
(0.00100053 9.99917e-05 0)
(0.00100055 9.99914e-05 0)
(0.00100056 9.99911e-05 0)
(0.00100058 9.99909e-05 0)
(0.0010006 9.99906e-05 0)
(0.00100062 9.99903e-05 0)
(0.00100064 9.999e-05 0)
(0.00100066 9.99896e-05 0)
(0.00100068 9.99893e-05 0)
(0.0010007 9.9989e-05 0)
(0.00100073 9.99886e-05 0)
(0.00100075 9.99882e-05 0)
(0.00100077 9.99879e-05 0)
(0.0010008 9.99875e-05 0)
(0.00100082 9.99871e-05 0)
(0.00100085 9.99867e-05 0)
(0.00100088 9.99862e-05 0)
(0.0010009 9.99858e-05 0)
(0.00100093 9.99854e-05 0)
(0.00100096 9.99849e-05 0)
(0.00100099 9.99844e-05 0)
(0.00100102 9.99839e-05 0)
(0.00100106 9.99834e-05 0)
(0.00100109 9.99829e-05 0)
(0.00100113 9.99823e-05 0)
(0.00100116 9.99817e-05 0)
(0.0010012 9.99812e-05 0)
(0.00100124 9.99806e-05 0)
(0.00100128 9.99799e-05 0)
(0.00100132 9.99793e-05 0)
(0.00100136 9.99786e-05 0)
(0.0010014 9.9978e-05 0)
(0.00100145 9.99773e-05 0)
(0.00100149 9.99765e-05 0)
(0.00100154 9.99758e-05 0)
(0.00100159 9.9975e-05 0)
(0.00100164 9.99742e-05 0)
(0.00100169 9.99734e-05 0)
(0.00100175 9.99725e-05 0)
(0.0010018 9.99717e-05 0)
(0.00100186 9.99708e-05 0)
(0.00100192 9.99698e-05 0)
(0.00100198 9.99689e-05 0)
(0.00100205 9.99679e-05 0)
(0.00100211 9.99668e-05 0)
(0.00100218 9.99658e-05 0)
(0.00100225 9.99647e-05 0)
(0.00100232 9.99636e-05 0)
(0.00100239 9.99624e-05 0)
(0.00100247 9.99612e-05 0)
(0.00100255 9.996e-05 0)
(0.00100263 9.99587e-05 0)
(0.00100271 9.99574e-05 0)
(0.0010028 9.9956e-05 0)
(0.00100289 9.99546e-05 0)
(0.00100298 9.99531e-05 0)
(0.00100308 9.99516e-05 0)
(0.00100318 9.99501e-05 0)
(0.00100328 9.99485e-05 0)
(0.00100338 9.99469e-05 0)
(0.00100349 9.99452e-05 0)
(0.0010036 9.99434e-05 0)
(0.00100372 9.99416e-05 0)
(0.00100384 9.99397e-05 0)
(0.00100396 9.99378e-05 0)
(0.00100408 9.99358e-05 0)
(0.00100421 9.99338e-05 0)
(0.00100435 9.99316e-05 0)
(0.00100449 9.99295e-05 0)
(0.00100463 9.99272e-05 0)
(0.00100478 9.99249e-05 0)
(0.00100493 9.99225e-05 0)
(0.00100509 9.992e-05 0)
(0.00100525 9.99174e-05 0)
(0.00100542 9.99148e-05 0)
(0.00100559 9.9912e-05 0)
(0.00100577 9.99092e-05 0)
(0.00100596 9.99063e-05 0)
(0.00100615 9.99033e-05 0)
(0.00100634 9.99002e-05 0)
(0.00100655 9.9897e-05 0)
(0.00100676 9.98937e-05 0)
(0.00100697 9.98903e-05 0)
(0.00100719 9.98868e-05 0)
(0.00100742 9.98831e-05 0)
(0.00100766 9.98794e-05 0)
(0.00100791 9.98755e-05 0)
(0.00100816 9.98715e-05 0)
(0.00100842 9.98674e-05 0)
(0.00100869 9.98631e-05 0)
(0.00100897 9.98587e-05 0)
(0.00100926 9.98541e-05 0)
(0.00100955 9.98494e-05 0)
(0.00100986 9.98445e-05 0)
(0.00101017 9.98395e-05 0)
(0.0010105 9.98343e-05 0)
(0.00101084 9.9829e-05 0)
(0.00101118 9.98234e-05 0)
(0.00101154 9.98177e-05 0)
(0.00101191 9.98118e-05 0)
(0.0010123 9.98057e-05 0)
(0.00101269 9.97993e-05 0)
(0.0010131 9.97928e-05 0)
(0.00101352 9.9786e-05 0)
(0.00101396 9.97791e-05 0)
(0.0010144 9.97718e-05 0)
(0.00101487 9.97643e-05 0)
(0.00101535 9.97566e-05 0)
(0.00101584 9.97486e-05 0)
(0.00101635 9.97403e-05 0)
(0.00101688 9.97317e-05 0)
(0.00101743 9.97229e-05 0)
(0.00101799 9.97137e-05 0)
(0.00101857 9.97042e-05 0)
(0.00101917 9.96943e-05 0)
(0.0010198 9.96841e-05 0)
(0.00102044 9.96735e-05 0)
(0.0010211 9.96625e-05 0)
(0.00102179 9.96511e-05 0)
(0.0010225 9.96392e-05 0)
(0.00102323 9.9627e-05 0)
(0.00102399 9.96142e-05 0)
(0.00102478 9.9601e-05 0)
(0.00102559 9.95872e-05 0)
(0.00102643 9.95729e-05 0)
(0.0010273 9.9558e-05 0)
(0.0010282 9.95426e-05 0)
(0.00102913 9.95264e-05 0)
(0.00103009 9.95096e-05 0)
(0.00103109 9.94921e-05 0)
(0.00103212 9.94738e-05 0)
(0.00103319 9.94547e-05 0)
(0.00103431 9.94348e-05 0)
(0.00103546 9.94139e-05 0)
(0.00103665 9.93921e-05 0)
(0.00103789 9.93692e-05 0)
(0.00103917 9.93452e-05 0)
(0.00104051 9.932e-05 0)
(0.0010419 9.92935e-05 0)
(0.00104334 9.92656e-05 0)
(0.00104484 9.92362e-05 0)
(0.00104639 9.92052e-05 0)
(0.00104802 9.91724e-05 0)
(0.00104971 9.91376e-05 0)
(0.00105147 9.91008e-05 0)
(0.00105331 9.90616e-05 0)
(0.00105522 9.90199e-05 0)
(0.00105723 9.89753e-05 0)
(0.00105933 9.89276e-05 0)
(0.00106152 9.88764e-05 0)
(0.00106382 9.88213e-05 0)
(0.00106624 9.87618e-05 0)
(0.00106878 9.86973e-05 0)
(0.00107146 9.86272e-05 0)
(0.00107428 9.85506e-05 0)
(0.00107726 9.84665e-05 0)
(0.00108042 9.83739e-05 0)
(0.00108378 9.82711e-05 0)
(0.00108735 9.81564e-05 0)
(0.00109117 9.80275e-05 0)
(0.00109526 9.78815e-05 0)
(0.00109966 9.77147e-05 0)
(0.00110442 9.7522e-05 0)
(0.00110961 9.72967e-05 0)
(0.00111528 9.70298e-05 0)
(0.00112154 9.67081e-05 0)
(0.00112852 9.63126e-05 0)
(0.00113639 9.58144e-05 0)
(0.00114541 9.51672e-05 0)
(0.00115595 9.42925e-05 0)
(0.00116861 9.30472e-05 0)
(0.00118442 9.11451e-05 0)
(0.00120533 8.79474e-05 0)
(0.00123554 8.18388e-05 0)
(0.00128553 6.81716e-05 0)
(0.001 0.0001 0)
(0.001 0.0001 0)
(0.001 0.0001 0)
(0.001 0.0001 0)
(0.001 0.0001 0)
(0.001 0.0001 0)
(0.001 0.0001 0)
(0.001 0.0001 0)
(0.001 0.0001 0)
(0.001 0.0001 0)
(0.001 0.0001 0)
(0.001 0.0001 0)
(0.001 0.0001 0)
(0.001 0.0001 0)
(0.001 0.0001 0)
(0.001 0.0001 0)
(0.001 0.0001 0)
(0.001 0.0001 0)
(0.001 0.0001 0)
(0.001 0.0001 0)
(0.001 0.0001 0)
(0.001 0.0001 0)
(0.001 0.0001 0)
(0.001 0.0001 0)
(0.001 0.0001 0)
(0.001 0.0001 0)
(0.001 0.0001 0)
(0.001 0.0001 0)
(0.001 0.0001 0)
(0.001 0.0001 0)
(0.001 0.0001 0)
(0.001 0.0001 0)
(0.001 0.0001 0)
(0.001 0.0001 0)
(0.001 0.0001 0)
(0.001 0.0001 0)
(0.001 0.0001 0)
(0.001 0.0001 0)
(0.001 0.0001 0)
(0.001 0.0001 0)
(0.001 0.0001 0)
(0.001 0.0001 0)
(0.001 0.0001 0)
(0.001 0.0001 0)
(0.001 0.0001 0)
(0.001 0.0001 0)
(0.001 0.0001 0)
(0.001 0.0001 0)
(0.001 0.0001 0)
(0.001 0.0001 0)
(0.001 0.0001 0)
(0.001 0.0001 0)
(0.001 0.0001 0)
(0.001 0.0001 0)
(0.001 0.0001 0)
(0.001 0.0001 0)
(0.001 0.0001 0)
(0.001 0.0001 0)
(0.001 0.0001 0)
(0.001 0.0001 0)
(0.001 0.0001 0)
(0.001 0.0001 0)
(0.001 0.0001 0)
(0.001 0.0001 0)
(0.001 0.0001 0)
(0.001 0.0001 0)
(0.001 0.0001 0)
(0.001 0.0001 0)
(0.001 0.0001 0)
(0.001 0.0001 0)
(0.001 0.0001 0)
(0.001 0.0001 0)
(0.001 0.0001 0)
(0.001 0.0001 0)
(0.001 0.0001 0)
(0.001 0.0001 0)
(0.001 0.0001 0)
(0.001 0.0001 0)
(0.001 0.0001 0)
(0.001 0.0001 0)
(0.001 0.0001 0)
(0.001 0.0001 0)
(0.001 0.0001 0)
(0.001 0.0001 0)
(0.001 0.0001 0)
(0.001 0.0001 0)
(0.001 0.0001 0)
(0.001 0.0001 0)
(0.001 0.0001 0)
(0.001 0.0001 0)
(0.001 0.0001 0)
(0.001 0.0001 0)
(0.001 0.0001 0)
(0.001 0.0001 0)
(0.001 0.0001 0)
(0.001 0.0001 0)
(0.001 0.0001 0)
(0.001 0.0001 0)
(0.001 0.0001 0)
(0.001 0.0001 0)
(0.001 0.0001 0)
(0.001 0.0001 0)
(0.001 0.0001 0)
(0.001 0.0001 0)
(0.001 0.0001 0)
(0.001 0.0001 0)
(0.001 0.0001 0)
(0.001 0.0001 0)
(0.001 0.0001 0)
(0.001 0.0001 0)
(0.001 0.0001 0)
(0.001 0.0001 0)
(0.001 0.0001 0)
(0.001 0.0001 0)
(0.001 0.0001 0)
(0.001 0.0001 0)
(0.001 0.0001 0)
(0.001 0.0001 0)
(0.001 0.0001 0)
(0.001 0.0001 0)
(0.001 0.0001 0)
(0.001 0.0001 0)
(0.001 0.0001 0)
(0.001 0.0001 0)
(0.001 0.0001 0)
(0.001 0.0001 0)
(0.001 0.0001 0)
(0.001 0.0001 0)
(0.001 0.0001 0)
(0.001 0.0001 0)
(0.001 0.0001 0)
(0.001 0.0001 0)
(0.001 0.0001 0)
(0.001 0.0001 0)
(0.001 0.0001 0)
(0.001 0.0001 0)
(0.001 0.0001 0)
(0.001 0.0001 0)
(0.001 0.0001 0)
(0.001 0.0001 0)
(0.001 0.0001 0)
(0.001 0.0001 0)
(0.001 0.0001 0)
(0.001 0.0001 0)
(0.001 0.0001 0)
(0.001 0.0001 0)
(0.001 0.0001 0)
(0.001 0.0001 0)
(0.001 0.0001 0)
(0.001 0.0001 0)
(0.001 0.0001 0)
(0.001 0.0001 0)
(0.001 0.0001 0)
(0.001 0.0001 0)
(0.001 0.0001 0)
(0.001 0.0001 0)
(0.001 0.0001 0)
(0.001 0.0001 0)
(0.001 0.0001 0)
(0.001 0.0001 0)
(0.001 0.0001 0)
(0.001 0.0001 0)
(0.001 0.0001 0)
(0.001 0.0001 0)
(0.001 0.0001 0)
(0.001 0.0001 0)
(0.001 0.0001 0)
(0.001 0.0001 0)
(0.001 0.0001 0)
(0.001 0.0001 0)
(0.001 0.0001 0)
(0.001 0.0001 0)
(0.001 0.0001 0)
(0.001 0.0001 0)
(0.001 0.0001 0)
(0.001 0.0001 0)
(0.001 0.0001 0)
(0.001 0.0001 0)
(0.001 9.99999e-05 0)
(0.001 9.99999e-05 0)
(0.001 9.99999e-05 0)
(0.001 9.99999e-05 0)
(0.001 9.99999e-05 0)
(0.001 9.99999e-05 0)
(0.001 9.99999e-05 0)
(0.001 9.99999e-05 0)
(0.001 9.99999e-05 0)
(0.001 9.99999e-05 0)
(0.001 9.99999e-05 0)
(0.001 9.99999e-05 0)
(0.001 9.99999e-05 0)
(0.001 9.99999e-05 0)
(0.001 9.99999e-05 0)
(0.001 9.99999e-05 0)
(0.001 9.99999e-05 0)
(0.001 9.99999e-05 0)
(0.001 9.99999e-05 0)
(0.001 9.99999e-05 0)
(0.001 9.99999e-05 0)
(0.001 9.99999e-05 0)
(0.001 9.99999e-05 0)
(0.001 9.99999e-05 0)
(0.001 9.99999e-05 0)
(0.001 9.99999e-05 0)
(0.001 9.99999e-05 0)
(0.001 9.99999e-05 0)
(0.001 9.99999e-05 0)
(0.001 9.99999e-05 0)
(0.001 9.99999e-05 0)
(0.001 9.99999e-05 0)
(0.001 9.99999e-05 0)
(0.001 9.99999e-05 0)
(0.001 9.99999e-05 0)
(0.001 9.99998e-05 0)
(0.001 9.99998e-05 0)
(0.001 9.99998e-05 0)
(0.001 9.99998e-05 0)
(0.001 9.99998e-05 0)
(0.001 9.99998e-05 0)
(0.001 9.99998e-05 0)
(0.001 9.99998e-05 0)
(0.001 9.99998e-05 0)
(0.001 9.99998e-05 0)
(0.001 9.99998e-05 0)
(0.001 9.99998e-05 0)
(0.001 9.99998e-05 0)
(0.001 9.99998e-05 0)
(0.00100001 9.99998e-05 0)
(0.00100001 9.99998e-05 0)
(0.00100001 9.99997e-05 0)
(0.00100001 9.99997e-05 0)
(0.00100001 9.99997e-05 0)
(0.00100001 9.99997e-05 0)
(0.00100001 9.99997e-05 0)
(0.00100001 9.99997e-05 0)
(0.00100001 9.99997e-05 0)
(0.00100001 9.99997e-05 0)
(0.00100001 9.99997e-05 0)
(0.00100001 9.99997e-05 0)
(0.00100001 9.99997e-05 0)
(0.00100001 9.99996e-05 0)
(0.00100001 9.99996e-05 0)
(0.00100001 9.99996e-05 0)
(0.00100001 9.99996e-05 0)
(0.00100001 9.99996e-05 0)
(0.00100001 9.99996e-05 0)
(0.00100001 9.99996e-05 0)
(0.00100001 9.99996e-05 0)
(0.00100001 9.99995e-05 0)
(0.00100001 9.99995e-05 0)
(0.00100001 9.99995e-05 0)
(0.00100001 9.99995e-05 0)
(0.00100001 9.99995e-05 0)
(0.00100001 9.99995e-05 0)
(0.00100001 9.99994e-05 0)
(0.00100001 9.99994e-05 0)
(0.00100001 9.99994e-05 0)
(0.00100001 9.99994e-05 0)
(0.00100001 9.99994e-05 0)
(0.00100001 9.99993e-05 0)
(0.00100001 9.99993e-05 0)
(0.00100001 9.99993e-05 0)
(0.00100002 9.99993e-05 0)
(0.00100002 9.99993e-05 0)
(0.00100002 9.99992e-05 0)
(0.00100002 9.99992e-05 0)
(0.00100002 9.99992e-05 0)
(0.00100002 9.99992e-05 0)
(0.00100002 9.99991e-05 0)
(0.00100002 9.99991e-05 0)
(0.00100002 9.99991e-05 0)
(0.00100002 9.9999e-05 0)
(0.00100002 9.9999e-05 0)
(0.00100002 9.9999e-05 0)
(0.00100002 9.9999e-05 0)
(0.00100002 9.99989e-05 0)
(0.00100002 9.99989e-05 0)
(0.00100002 9.99989e-05 0)
(0.00100003 9.99988e-05 0)
(0.00100003 9.99988e-05 0)
(0.00100003 9.99987e-05 0)
(0.00100003 9.99987e-05 0)
(0.00100003 9.99987e-05 0)
(0.00100003 9.99986e-05 0)
(0.00100003 9.99986e-05 0)
(0.00100003 9.99985e-05 0)
(0.00100003 9.99985e-05 0)
(0.00100003 9.99984e-05 0)
(0.00100003 9.99984e-05 0)
(0.00100004 9.99983e-05 0)
(0.00100004 9.99983e-05 0)
(0.00100004 9.99982e-05 0)
(0.00100004 9.99982e-05 0)
(0.00100004 9.99981e-05 0)
(0.00100004 9.9998e-05 0)
(0.00100004 9.9998e-05 0)
(0.00100004 9.99979e-05 0)
(0.00100005 9.99978e-05 0)
(0.00100005 9.99978e-05 0)
(0.00100005 9.99977e-05 0)
(0.00100005 9.99976e-05 0)
(0.00100005 9.99976e-05 0)
(0.00100005 9.99975e-05 0)
(0.00100006 9.99974e-05 0)
(0.00100006 9.99973e-05 0)
(0.00100006 9.99972e-05 0)
(0.00100006 9.99971e-05 0)
(0.00100006 9.99971e-05 0)
(0.00100006 9.9997e-05 0)
(0.00100007 9.99969e-05 0)
(0.00100007 9.99968e-05 0)
(0.00100007 9.99967e-05 0)
(0.00100007 9.99966e-05 0)
(0.00100008 9.99964e-05 0)
(0.00100008 9.99963e-05 0)
(0.00100008 9.99962e-05 0)
(0.00100008 9.99961e-05 0)
(0.00100009 9.9996e-05 0)
(0.00100009 9.99958e-05 0)
(0.00100009 9.99957e-05 0)
(0.00100009 9.99956e-05 0)
(0.0010001 9.99954e-05 0)
(0.0010001 9.99953e-05 0)
(0.0010001 9.99951e-05 0)
(0.00100011 9.9995e-05 0)
(0.00100011 9.99948e-05 0)
(0.00100011 9.99946e-05 0)
(0.00100012 9.99945e-05 0)
(0.00100012 9.99943e-05 0)
(0.00100012 9.99941e-05 0)
(0.00100013 9.99939e-05 0)
(0.00100013 9.99937e-05 0)
(0.00100014 9.99935e-05 0)
(0.00100014 9.99933e-05 0)
(0.00100015 9.99931e-05 0)
(0.00100015 9.99929e-05 0)
(0.00100016 9.99927e-05 0)
(0.00100016 9.99924e-05 0)
(0.00100017 9.99922e-05 0)
(0.00100017 9.99919e-05 0)
(0.00100018 9.99917e-05 0)
(0.00100018 9.99914e-05 0)
(0.00100019 9.99911e-05 0)
(0.00100019 9.99909e-05 0)
(0.0010002 9.99906e-05 0)
(0.00100021 9.99903e-05 0)
(0.00100021 9.999e-05 0)
(0.00100022 9.99896e-05 0)
(0.00100023 9.99893e-05 0)
(0.00100023 9.9989e-05 0)
(0.00100024 9.99886e-05 0)
(0.00100025 9.99883e-05 0)
(0.00100026 9.99879e-05 0)
(0.00100027 9.99875e-05 0)
(0.00100027 9.99871e-05 0)
(0.00100028 9.99867e-05 0)
(0.00100029 9.99863e-05 0)
(0.0010003 9.99858e-05 0)
(0.00100031 9.99854e-05 0)
(0.00100032 9.99849e-05 0)
(0.00100033 9.99844e-05 0)
(0.00100034 9.99839e-05 0)
(0.00100035 9.99834e-05 0)
(0.00100036 9.99829e-05 0)
(0.00100037 9.99823e-05 0)
(0.00100039 9.99818e-05 0)
(0.0010004 9.99812e-05 0)
(0.00100041 9.99806e-05 0)
(0.00100042 9.998e-05 0)
(0.00100044 9.99793e-05 0)
(0.00100045 9.99787e-05 0)
(0.00100047 9.9978e-05 0)
(0.00100048 9.99773e-05 0)
(0.0010005 9.99766e-05 0)
(0.00100051 9.99758e-05 0)
(0.00100053 9.9975e-05 0)
(0.00100055 9.99742e-05 0)
(0.00100056 9.99734e-05 0)
(0.00100058 9.99726e-05 0)
(0.0010006 9.99717e-05 0)
(0.00100062 9.99708e-05 0)
(0.00100064 9.99699e-05 0)
(0.00100066 9.99689e-05 0)
(0.00100068 9.99679e-05 0)
(0.0010007 9.99669e-05 0)
(0.00100072 9.99658e-05 0)
(0.00100075 9.99647e-05 0)
(0.00100077 9.99636e-05 0)
(0.0010008 9.99625e-05 0)
(0.00100082 9.99613e-05 0)
(0.00100085 9.996e-05 0)
(0.00100088 9.99587e-05 0)
(0.0010009 9.99574e-05 0)
(0.00100093 9.99561e-05 0)
(0.00100096 9.99547e-05 0)
(0.00100099 9.99532e-05 0)
(0.00100102 9.99517e-05 0)
(0.00100106 9.99502e-05 0)
(0.00100109 9.99486e-05 0)
(0.00100113 9.9947e-05 0)
(0.00100116 9.99453e-05 0)
(0.0010012 9.99435e-05 0)
(0.00100124 9.99417e-05 0)
(0.00100128 9.99398e-05 0)
(0.00100132 9.99379e-05 0)
(0.00100136 9.99359e-05 0)
(0.0010014 9.99339e-05 0)
(0.00100145 9.99318e-05 0)
(0.00100149 9.99296e-05 0)
(0.00100154 9.99274e-05 0)
(0.00100159 9.99251e-05 0)
(0.00100164 9.99227e-05 0)
(0.00100169 9.99202e-05 0)
(0.00100175 9.99176e-05 0)
(0.0010018 9.9915e-05 0)
(0.00100186 9.99123e-05 0)
(0.00100192 9.99095e-05 0)
(0.00100198 9.99066e-05 0)
(0.00100204 9.99036e-05 0)
(0.00100211 9.99006e-05 0)
(0.00100218 9.98974e-05 0)
(0.00100225 9.98941e-05 0)
(0.00100232 9.98907e-05 0)
(0.00100239 9.98872e-05 0)
(0.00100247 9.98836e-05 0)
(0.00100255 9.98799e-05 0)
(0.00100263 9.98761e-05 0)
(0.00100271 9.98721e-05 0)
(0.0010028 9.9868e-05 0)
(0.00100289 9.98638e-05 0)
(0.00100298 9.98595e-05 0)
(0.00100307 9.9855e-05 0)
(0.00100317 9.98503e-05 0)
(0.00100327 9.98456e-05 0)
(0.00100338 9.98406e-05 0)
(0.00100349 9.98355e-05 0)
(0.0010036 9.98303e-05 0)
(0.00100371 9.98248e-05 0)
(0.00100383 9.98192e-05 0)
(0.00100395 9.98135e-05 0)
(0.00100408 9.98075e-05 0)
(0.00100421 9.98013e-05 0)
(0.00100434 9.9795e-05 0)
(0.00100448 9.97884e-05 0)
(0.00100463 9.97817e-05 0)
(0.00100477 9.97747e-05 0)
(0.00100493 9.97675e-05 0)
(0.00100508 9.976e-05 0)
(0.00100525 9.97523e-05 0)
(0.00100541 9.97444e-05 0)
(0.00100559 9.97362e-05 0)
(0.00100577 9.97278e-05 0)
(0.00100595 9.9719e-05 0)
(0.00100614 9.971e-05 0)
(0.00100634 9.97007e-05 0)
(0.00100654 9.96911e-05 0)
(0.00100675 9.96812e-05 0)
(0.00100696 9.9671e-05 0)
(0.00100719 9.96604e-05 0)
(0.00100742 9.96495e-05 0)
(0.00100765 9.96383e-05 0)
(0.0010079 9.96266e-05 0)
(0.00100815 9.96146e-05 0)
(0.00100841 9.96022e-05 0)
(0.00100868 9.95894e-05 0)
(0.00100896 9.95762e-05 0)
(0.00100925 9.95625e-05 0)
(0.00100954 9.95484e-05 0)
(0.00100985 9.95338e-05 0)
(0.00101016 9.95187e-05 0)
(0.00101049 9.95032e-05 0)
(0.00101083 9.94871e-05 0)
(0.00101117 9.94705e-05 0)
(0.00101153 9.94533e-05 0)
(0.0010119 9.94356e-05 0)
(0.00101228 9.94172e-05 0)
(0.00101268 9.93982e-05 0)
(0.00101309 9.93786e-05 0)
(0.00101351 9.93584e-05 0)
(0.00101394 9.93374e-05 0)
(0.00101439 9.93157e-05 0)
(0.00101485 9.92933e-05 0)
(0.00101533 9.92701e-05 0)
(0.00101583 9.92461e-05 0)
(0.00101634 9.92213e-05 0)
(0.00101686 9.91955e-05 0)
(0.00101741 9.91689e-05 0)
(0.00101797 9.91414e-05 0)
(0.00101855 9.91128e-05 0)
(0.00101915 9.90832e-05 0)
(0.00101977 9.90526e-05 0)
(0.00102042 9.90208e-05 0)
(0.00102108 9.89878e-05 0)
(0.00102177 9.89537e-05 0)
(0.00102247 9.89182e-05 0)
(0.00102321 9.88814e-05 0)
(0.00102397 9.88432e-05 0)
(0.00102475 9.88035e-05 0)
(0.00102556 9.87622e-05 0)
(0.0010264 9.87193e-05 0)
(0.00102727 9.86747e-05 0)
(0.00102816 9.86283e-05 0)
(0.00102909 9.85799e-05 0)
(0.00103006 9.85296e-05 0)
(0.00103105 9.8477e-05 0)
(0.00103209 9.84222e-05 0)
(0.00103316 9.8365e-05 0)
(0.00103426 9.83052e-05 0)
(0.00103541 9.82427e-05 0)
(0.00103661 9.81773e-05 0)
(0.00103784 9.81087e-05 0)
(0.00103913 9.80368e-05 0)
(0.00104046 9.79613e-05 0)
(0.00104184 9.78819e-05 0)
(0.00104328 9.77983e-05 0)
(0.00104477 9.77103e-05 0)
(0.00104633 9.76173e-05 0)
(0.00104795 9.75191e-05 0)
(0.00104963 9.7415e-05 0)
(0.00105139 9.73047e-05 0)
(0.00105322 9.71874e-05 0)
(0.00105514 9.70624e-05 0)
(0.00105714 9.6929e-05 0)
(0.00105923 9.67863e-05 0)
(0.00106142 9.66331e-05 0)
(0.00106371 9.64683e-05 0)
(0.00106612 9.62903e-05 0)
(0.00106865 9.60976e-05 0)
(0.00107131 9.5888e-05 0)
(0.00107412 9.56592e-05 0)
(0.00107709 9.54083e-05 0)
(0.00108023 9.51317e-05 0)
(0.00108356 9.48252e-05 0)
(0.00108711 9.44834e-05 0)
(0.00109089 9.40997e-05 0)
(0.00109494 9.36655e-05 0)
(0.0010993 9.31698e-05 0)
(0.00110401 9.25984e-05 0)
(0.00110911 9.19319e-05 0)
(0.00111469 9.1144e-05 0)
(0.00112082 9.0198e-05 0)
(0.00112763 8.90406e-05 0)
(0.00113525 8.75922e-05 0)
(0.00114389 8.57289e-05 0)
(0.00115383 8.32479e-05 0)
(0.00116547 7.97983e-05 0)
(0.00117932 7.4731e-05 0)
(0.00119602 6.67529e-05 0)
(0.00121577 5.30752e-05 0)
(0.00123552 2.71909e-05 0)
(0.001 0.0001 0)
(0.001 0.0001 0)
(0.001 0.0001 0)
(0.001 0.0001 0)
(0.001 0.0001 0)
(0.001 0.0001 0)
(0.001 0.0001 0)
(0.001 0.0001 0)
(0.001 0.0001 0)
(0.001 0.0001 0)
(0.001 0.0001 0)
(0.001 0.0001 0)
(0.001 0.0001 0)
(0.001 0.0001 0)
(0.001 0.0001 0)
(0.001 0.0001 0)
(0.001 0.0001 0)
(0.001 0.0001 0)
(0.001 0.0001 0)
(0.001 0.0001 0)
(0.001 0.0001 0)
(0.001 0.0001 0)
(0.001 0.0001 0)
(0.001 0.0001 0)
(0.001 0.0001 0)
(0.001 0.0001 0)
(0.001 0.0001 0)
(0.001 0.0001 0)
(0.001 0.0001 0)
(0.001 0.0001 0)
(0.001 0.0001 0)
(0.001 0.0001 0)
(0.001 0.0001 0)
(0.001 0.0001 0)
(0.001 0.0001 0)
(0.001 0.0001 0)
(0.001 0.0001 0)
(0.001 0.0001 0)
(0.001 0.0001 0)
(0.001 0.0001 0)
(0.001 0.0001 0)
(0.001 0.0001 0)
(0.001 0.0001 0)
(0.001 0.0001 0)
(0.001 0.0001 0)
(0.001 0.0001 0)
(0.001 0.0001 0)
(0.001 0.0001 0)
(0.001 0.0001 0)
(0.001 0.0001 0)
(0.001 0.0001 0)
(0.001 0.0001 0)
(0.001 0.0001 0)
(0.001 0.0001 0)
(0.001 0.0001 0)
(0.001 0.0001 0)
(0.001 0.0001 0)
(0.001 0.0001 0)
(0.001 0.0001 0)
(0.001 0.0001 0)
(0.001 0.0001 0)
(0.001 0.0001 0)
(0.001 0.0001 0)
(0.001 0.0001 0)
(0.001 0.0001 0)
(0.001 0.0001 0)
(0.001 0.0001 0)
(0.001 0.0001 0)
(0.001 0.0001 0)
(0.001 0.0001 0)
(0.001 0.0001 0)
(0.001 0.0001 0)
(0.001 0.0001 0)
(0.001 0.0001 0)
(0.001 0.0001 0)
(0.001 0.0001 0)
(0.001 0.0001 0)
(0.001 0.0001 0)
(0.001 0.0001 0)
(0.001 0.0001 0)
(0.001 0.0001 0)
(0.001 0.0001 0)
(0.001 0.0001 0)
(0.001 0.0001 0)
(0.001 0.0001 0)
(0.001 0.0001 0)
(0.001 0.0001 0)
(0.001 0.0001 0)
(0.001 0.0001 0)
(0.001 0.0001 0)
(0.001 0.0001 0)
(0.001 0.0001 0)
(0.001 0.0001 0)
(0.001 0.0001 0)
(0.001 0.0001 0)
(0.001 0.0001 0)
(0.001 0.0001 0)
(0.001 0.0001 0)
(0.001 0.0001 0)
(0.001 0.0001 0)
(0.001 0.0001 0)
(0.001 0.0001 0)
(0.001 0.0001 0)
(0.001 0.0001 0)
(0.001 0.0001 0)
(0.001 0.0001 0)
(0.001 0.0001 0)
(0.001 0.0001 0)
(0.001 0.0001 0)
(0.001 0.0001 0)
(0.001 0.0001 0)
(0.001 0.0001 0)
(0.001 0.0001 0)
(0.001 0.0001 0)
(0.001 0.0001 0)
(0.001 0.0001 0)
(0.001 0.0001 0)
(0.001 0.0001 0)
(0.001 0.0001 0)
(0.001 0.0001 0)
(0.001 0.0001 0)
(0.001 0.0001 0)
(0.001 0.0001 0)
(0.001 0.0001 0)
(0.001 0.0001 0)
(0.001 0.0001 0)
(0.001 0.0001 0)
(0.001 0.0001 0)
(0.001 0.0001 0)
(0.001 0.0001 0)
(0.001 0.0001 0)
(0.001 0.0001 0)
(0.001 0.0001 0)
(0.001 0.0001 0)
(0.001 0.0001 0)
(0.001 0.0001 0)
(0.001 0.0001 0)
(0.001 0.0001 0)
(0.001 0.0001 0)
(0.001 0.0001 0)
(0.001 0.0001 0)
(0.001 0.0001 0)
(0.001 0.0001 0)
(0.001 0.0001 0)
(0.001 0.0001 0)
(0.001 0.0001 0)
(0.001 0.0001 0)
(0.001 0.0001 0)
(0.001 0.0001 0)
(0.001 0.0001 0)
(0.001 0.0001 0)
(0.001 0.0001 0)
(0.001 0.0001 0)
(0.001 0.0001 0)
(0.001 0.0001 0)
(0.001 0.0001 0)
(0.001 0.0001 0)
(0.001 0.0001 0)
(0.001 0.0001 0)
(0.001 0.0001 0)
(0.001 0.0001 0)
(0.001 9.99999e-05 0)
(0.001 9.99999e-05 0)
(0.001 9.99999e-05 0)
(0.001 9.99999e-05 0)
(0.001 9.99999e-05 0)
(0.001 9.99999e-05 0)
(0.001 9.99999e-05 0)
(0.001 9.99999e-05 0)
(0.001 9.99999e-05 0)
(0.001 9.99999e-05 0)
(0.001 9.99999e-05 0)
(0.001 9.99999e-05 0)
(0.001 9.99999e-05 0)
(0.001 9.99999e-05 0)
(0.001 9.99999e-05 0)
(0.001 9.99999e-05 0)
(0.001 9.99999e-05 0)
(0.001 9.99999e-05 0)
(0.001 9.99999e-05 0)
(0.001 9.99999e-05 0)
(0.001 9.99999e-05 0)
(0.001 9.99999e-05 0)
(0.001 9.99999e-05 0)
(0.001 9.99999e-05 0)
(0.001 9.99999e-05 0)
(0.001 9.99999e-05 0)
(0.001 9.99999e-05 0)
(0.001 9.99999e-05 0)
(0.001 9.99999e-05 0)
(0.001 9.99999e-05 0)
(0.001 9.99999e-05 0)
(0.001 9.99999e-05 0)
(0.001 9.99999e-05 0)
(0.001 9.99999e-05 0)
(0.001 9.99999e-05 0)
(0.001 9.99998e-05 0)
(0.001 9.99998e-05 0)
(0.001 9.99998e-05 0)
(0.001 9.99998e-05 0)
(0.001 9.99998e-05 0)
(0.001 9.99998e-05 0)
(0.001 9.99998e-05 0)
(0.001 9.99998e-05 0)
(0.001 9.99998e-05 0)
(0.001 9.99998e-05 0)
(0.001 9.99998e-05 0)
(0.001 9.99998e-05 0)