/*--------------------------------*- C++ -*----------------------------------*\
  =========                 |
  \\      /  F ield         | OpenFOAM: The Open Source CFD Toolbox
   \\    /   O peration     | Website:  https://openfoam.org
    \\  /    A nd           | Version:  6
     \\/     M anipulation  |
\*---------------------------------------------------------------------------*/
FoamFile
{
    version     2.0;
    format      ascii;
    class       volScalarField;
    location    "0";
    object      hwater;
}
// * * * * * * * * * * * * * * * * * * * * * * * * * * * * * * * * * * * * * //

dimensions      [0 1 0 0 0 0 0];

internalField   nonuniform List<scalar> 10(0.01 0.01 0.01 0.01 0.01 0.1 0.1 0.1 0.1 0.1);

boundaryField
{
    inlet
    {
        type            fixedValue;
        value           uniform 0.9;
    }
    outlet
    {
        type            fixedValue;
        value           uniform 0.4;
    }
    frontAndBack
    {
        type            empty;
    }
}


// ************************************************************************* //
